ITEM: TIMESTEP
1000000
ITEM: NUMBER OF ATOMS
400
ITEM: BOX BOUNDS pp pp pp
0.0000000000000000e+00 2.0000000000000000e+01
0.0000000000000000e+00 2.0000000000000000e+01
-5.0000000000000000e-01 5.0000000000000000e-01
ITEM: ATOMS id vx vy
24 -0.0112236 0.0314556
386 -0.00419226 -0.00101025
389 0.00489807 0.0235049
31 -0.0311153 -0.0213501
14 -0.0254638 0.0362853
393 0.0228026 0.0405664
1 -0.0144236 0.0590939
2 0.0390794 0.0341033
25 0.03583 -0.0228071
387 -0.0650896 0.0251391
388 0.0214288 0.00385581
8 0.00923929 -0.0375747
11 0.00445361 0.0320309
29 -0.0204925 0.022567
32 0.0348405 -0.0340271
35 -0.000818076 0.0125657
396 -0.0129035 0.0535078
17 0.0382517 0.0158945
378 0.0243932 0.0326544
38 0.0324164 0.0131975
22 -0.0691534 0.0364408
64 -0.0355136 -0.0299409
4 -0.00674108 0.0171869
5 -0.0362014 0.0380169
7 0.0339261 0.0331852
53 -0.0380852 -0.028404
13 0.0409713 -0.0318307
33 -0.00694602 0.00540386
16 -0.0348738 0.0179528
39 0.00848636 -0.00445492
19 -0.000802572 0.0324754
45 0.0125684 0.0263922
44 -0.015486 -0.00182998
47 -0.0119007 -0.033403
74 -0.0556229 0.00642336
56 0.00256893 -0.0032001
60 0.0569118 -0.0176351
18 0.0335043 0.0285252
40 -0.0266548 0.0208633
43 0.031135 -0.0399188
84 -0.0303624 -0.0621407
9 0.00722622 0.0289007
27 0.0444529 0.0032767
28 0.00273714 0.01026
69 0.0255348 0.0207579
30 0.0254499 0.01799
54 -0.0250011 0.0428528
37 -0.0510069 0.00362636
96 0.00875752 -0.0422121
23 -0.0224974 0.00935121
42 0.0371157 -0.0407484
6 0.0183368 0.0353007
46 -0.0464712 -0.0120528
48 0.0159937 0.0154618
51 0.0139989 -0.00363022
55 -0.0151208 0.0193016
58 -0.0426989 -0.00603988
80 0.0156074 -0.0491445
41 -0.0307832 -0.0154819
61 -0.0299785 -0.0149784
66 -0.038492 0.0419325
90 -0.010585 -0.0252056
49 -0.0426202 0.0418922
70 -0.0294231 0.00699938
52 0.0198805 0.0274852
73 0.0107398 0.0106163
93 0.0353315 0.0668498
75 -0.00564504 0.0152193
36 -0.01897 0.0179976
57 0.0173381 0.0289084
63 0.028249 -0.016123
85 0.00562568 0.0181544
26 -0.0183154 -0.00330017
89 0.00762769 -0.00232203
111 0.0318667 -0.0364736
50 -0.0301361 0.0120767
94 0.0139846 0.0346954
99 0.0370095 -0.0185381
101 0.0335459 0.00606469
81 -0.00272575 -0.0335656
62 0.011762 -0.0126478
104 -0.00440273 -0.0391311
83 0.0219244 0.000590926
67 -0.00911864 -0.0138774
87 -0.00462776 0.00946999
109 0.00468295 0.0136745
71 -0.0395879 0.0108566
92 -0.0016538 -0.0066795
112 -0.0148374 -0.0109411
95 -0.0188645 0.00906025
78 -0.0361586 -0.0464925
76 0.0034136 0.052373
79 -0.0153842 -0.0506331
118 0.00391869 0.00592545
82 0.0258859 0.0101828
121 0.0364786 -0.00552592
102 -0.0146296 0.00759978
107 0.0104345 -0.000919778
68 -0.0238386 0.0425809
128 -0.0206054 -0.00498667
114 0.0472577 0.0130686
34 0.0198869 0.0121094
77 -0.00594008 -0.00686556
59 -0.0593699 0.0131157
119 -0.0171863 0.00151213
100 0.080655 -0.0045074
140 -0.00422847 -0.00809318
159 0.0670731 -0.0388443
162 -0.0165849 -0.0217241
123 -0.034368 -0.0115219
65 0.00697847 0.0171218
86 -0.0177017 -0.0141204
91 -0.012232 0.00122057
72 0.0161606 0.0330109
113 -0.0318884 0.0236979
138 -0.0403279 -0.0136698
117 0.0267091 0.00483619
103 0.0114591 0.0108747
142 0.0519718 0.0293084
143 0.0196866 -0.00868669
124 0.0545185 -0.0126494
108 -0.01103 -0.0332962
88 -0.0183043 0.000138935
151 0.0232334 0.0225028
134 0.00289041 0.0144219
115 -0.0119735 -0.0969314
116 -0.00820884 0.0136134
135 0.00227043 -0.0257191
120 -0.00344372 0.00764811
139 0.0612418 -0.0421941
161 -0.0025164 -0.0151986
145 0.030795 0.0310818
129 -0.0281755 0.0156997
110 0.00788541 -0.0242886
132 0.00437743 0.0245291
133 -0.0230561 0.0305945
153 0.0499042 0.026937
173 0.00509504 0.0253917
122 0.0103411 0.0519451
105 -0.0578343 0.0315256
126 -0.0481303 0.0117352
149 -0.0578656 0.0286539
169 -0.0562241 0.00650027
168 -0.0383695 -0.0105676
172 -0.00931951 0.0124926
152 -0.0079151 0.0356854
175 0.0346778 -0.066608
97 -0.0271798 0.0267526
136 -0.0517388 0.0208
137 -0.0398586 -0.00568876
158 0.00354871 -0.0330925
141 0.0327428 -0.0282462
125 -0.0675791 -0.00564242
146 0.0166205 -0.0150045
130 0.0215913 -0.0166416
171 -0.034807 -0.0189448
154 0.0539636 0.0353768
193 -0.013253 -0.0315816
174 -0.00395197 -0.0456457
155 0.0654888 0.016954
98 -0.0355527 0.00624542
160 0.0444166 -0.0389614
178 0.0288654 0.0344301
199 0.0576438 0.00633136
182 0.0156517 -0.00711316
148 0.0767057 0.0238667
131 -0.0209836 -0.027824
156 -0.00669982 -0.0296065
177 0.0169988 -0.00331611
198 0.0356914 -0.0157586
157 -0.00321136 0.0197286
163 5.07162e-05 -0.0612266
144 0.0127544 -0.00023753
164 0.0376491 0.0679016
106 0.0199994 -0.0525352
214 -0.0550625 -0.00485834
195 -0.00203537 0.0006432
176 0.0370942 -0.0724377
194 0.0306491 0.0259726
197 -0.0148809 0.00109202
200 0.031787 -0.0231053
179 -0.0103556 0.0027135
185 -0.0226328 0.0325905
127 0.0406354 0.0347461
167 -0.00040841 0.0152669
208 -0.0477617 -0.00297563
189 -0.0182458 -0.00443737
213 0.081133 0.0105052
235 0.0106931 0.00276452
218 -0.0186715 -0.0118518
201 0.0615909 0.00173364
180 0.0228863 0.0127875
181 -0.00198283 -0.0304268
147 -0.0067155 0.0157311
166 0.0593513 0.0622552
229 0.0345281 0.0176247
170 -0.0399748 0.0285401
234 -0.0556509 0.00676772
233 -0.0121447 -0.042769
255 -0.0198534 -0.0124519
237 -0.0373264 -0.0241521
216 0.030051 -0.00637026
204 -0.00827865 -0.03628
165 0.0288888 0.017491
186 0.00869251 -0.0149709
227 0.0250092 0.0260353
212 0.0248402 0.0147035
150 0.00740023 -0.00875993
209 0.00148608 -0.00173919
236 -0.0365121 -0.0196265
217 -0.0181423 -0.0537734
239 -0.0377687 0.0354788
183 0.0354514 -0.0354402
205 0.0455553 0.0049666
206 -0.0177842 0.0108549
188 0.0306957 0.0182188
231 0.00866249 0.0637783
272 0.0333435 -0.00383866
215 -0.00486031 0.0305277
184 0.0215036 -0.00958007
221 0.00624091 0.0548516
225 -0.00400314 -0.0422778
187 -0.0184739 -0.0322187
228 -0.0399111 0.0195463
211 0.00907301 -0.0173292
191 -0.0710087 0.01702
192 0.0416983 -0.0165365
258 -0.0135299 -0.0414459
238 0.0171554 -0.0504746
279 0.0283529 0.000815785
220 0.0182978 0.014238
219 0.0305453 -0.0298186
260 -0.00724085 0.0162397
240 0.0149425 -0.00506396
203 0.00291375 0.00826366
207 0.0132604 -0.0174535
245 0.033716 -0.00873859
210 0.0037178 0.00282671
190 0.0197452 0.0113675
251 -0.00109113 0.00243589
252 0.0106407 -0.000926462
232 0.0601383 0.0446897
256 0.0431925 0.0109682
196 -0.00918754 -0.00106448
257 0.0348338 -0.0262802
222 -0.00638421 0.0107505
262 -0.0196524 -0.0173039
202 -0.000187307 0.040054
223 -0.0108152 0.0214659
224 -0.00509378 -0.00195284
286 0.00323407 -0.00597886
271 -0.0251561 0.051739
312 -0.0268028 -0.00473273
253 0.0120605 0.025413
274 0.0457275 0.0482987
243 0.069654 0.00591884
263 -0.0192057 0.03565
246 0.0529846 -0.00426991
264 0.03784 -0.0473875
247 -0.0195861 -0.0223963
313 0.0388931 0.00269868
254 0.0041733 0.0212435
277 0.00248299 0.0525429
297 -0.0259171 0.0143454
259 0.00760545 -0.0147035
280 0.0310566 0.0481398
242 -0.0667659 -0.0159119
324 -0.0287858 -0.0110975
226 -0.0336645 -0.0436476
230 0.0437107 0.0614174
250 -0.0234792 0.0180796
296 0.0288315 -0.0291158
261 0.0177542 -0.00097221
241 -0.0455593 -0.000443993
285 0.0047745 -0.00120937
266 -0.0146477 -0.0214923
268 -0.0492032 0.00451781
249 0.0237566 0.00765074
310 -0.000997338 0.00439165
248 -0.0231341 0.0315205
275 -0.00880158 -0.0364723
273 -0.0178082 0.0383999
276 0.0393109 -0.0105475
317 0.0077114 -0.00899645
318 -0.0193141 -0.0218294
278 -0.0238154 0.00500903
299 -0.00721199 0.0149702
282 0.00611958 0.00852242
283 0.0242842 -0.0131295
304 0.0254202 0.0203201
327 -0.030603 0.0293091
287 -0.058964 0.00830127
265 0.012778 0.0148196
288 0.0166537 0.00994115
269 0.0594885 0.0516126
329 0.0563362 0.000991565
292 -0.0216819 0.0217738
294 0.0486076 0.0447072
295 -0.0180519 -0.0253699
337 0.0713676 0.0051018
302 0.00107086 -0.00625324
244 0.0324421 0.0114246
267 -0.0196053 -0.0061289
289 -0.0137617 0.0348348
291 -0.00466654 0.00435968
311 -0.0154395 -0.016359
316 0.0223429 0.0197334
336 0.0114916 -0.0466065
338 0.0412031 -0.0109756
300 -0.0185028 0.012854
281 -0.0102632 0.00883715
343 0.0221505 -0.0545555
284 0.0167938 -0.00784809
326 0.0179717 -0.0277315
307 -0.0276882 0.0228993
328 -0.0157074 -0.02769
309 -0.0530283 -0.013483
270 -0.0168208 -0.0203934
293 -0.0386129 -0.0914511
306 0.0191006 -0.0239839
347 -0.0183203 0.00274927
330 -0.0236803 -0.0314425
331 0.0166143 -0.0103061
332 0.0158256 0.0100706
397 0.00338951 -0.0438397
339 0.00407423 0.0195175
298 0.0545411 0.000164679
323 0.0207479 -0.0319169
345 -0.0152315 -0.00920965
325 -0.00570162 -0.00418919
305 0.0384413 0.00415266
290 0.00644722 0.0434172
352 0.0122735 -0.0094295
334 -0.0154288 0.021924
335 -0.0778609 -0.0135274
315 -0.0121844 0.0164891
376 0.0197661 -0.0693916
341 -0.0141084 -0.0207174
303 -0.0336018 0.00786126
301 -0.0233398 0.0532156
322 -0.0017355 0.0159254
344 0.00259304 -0.0243498
346 -0.0115127 -0.0241717
367 0.0099406 -0.0209549
349 -0.0333565 -0.00877986
308 -0.0297402 0.00541606
351 -0.0131881 0.0471834
373 0.0102586 -0.00306847
355 -0.00318543 -0.0253709
358 0.00829072 0.0373512
365 -0.0038344 -0.00597761
384 0.000658516 -0.0278378
390 0.0203431 -0.000773555
391 0.0223851 -0.014664
333 0.00204928 0.0157466
314 -0.0325083 0.0163762
377 0.0445168 -0.0159013
360 -0.0614437 0.0570939
379 -0.0170116 0.0180905
319 -0.017319 -0.0350108
342 -0.0211017 0.0469982
363 -0.0157636 0.0175598
364 0.0184411 -0.0159175
366 0.0041852 -0.0163426
371 0.0415722 -0.00896527
12 -0.0299498 0.0412873
353 0.0207785 0.0233892
374 0.00287844 0.0331596
354 0.0241442 0.0224037
398 0.0443986 -0.073531
321 -0.0168133 0.000216565
362 -0.00729554 0.0708005
340 -0.0697189 0.0411271
320 0.00496778 0.0753723
382 0.0485395 -0.0137436
348 -0.0502422 0.0928645
375 -0.0225376 0.0244227
356 0.0486549 -0.0268253
357 -0.00845487 0.0047818
359 -0.0284178 -0.00713855
399 -0.0417749 0.0607744
361 0.0251988 0.0207598
400 -0.0499584 0.0029824
381 0.0123778 -0.00698285
385 0.00489057 0.0461138
383 0.0774088 -0.0314525
350 0.0192995 0.0164485
3 0.0481991 0.0159368
368 -0.00445466 -0.000677312
369 -0.00357168 -0.0383579
372 0.0260861 0.0288936
392 -0.0135802 -0.0132498
21 -0.0141476 -0.0294973
370 -0.010949 -0.0224493
10 0.018379 -0.0107531
15 0.00668945 -0.030513
394 0.0660094 0.00887166
395 0.049267 0.0340194
20 0.00358025 -0.000255648
380 0.0233569 0.0204947
