ITEM: TIMESTEP
10000000
ITEM: NUMBER OF ATOMS
400
ITEM: BOX BOUNDS pp pp pp
0.0000000000000000e+00 2.0000000000000000e+01
0.0000000000000000e+00 2.0000000000000000e+01
-5.0000000000000000e-01 5.0000000000000000e-01
ITEM: ATOMS id vx vy
86 -0.0778325 -0.00791572
326 -0.0022188 0.0174982
10 0.0318183 -0.0633397
391 -0.059285 -0.0171665
102 -0.0523071 -0.00586384
109 -0.027687 -0.0186732
8 0.00073306 0.0356675
27 -0.0335437 0.00819031
400 -0.0239685 -0.0420208
110 -0.030137 -0.00852142
74 -0.0236282 -0.0050945
19 0.0239171 0.00700805
96 -0.0079727 -0.0518306
160 0.00259881 -0.0228928
339 0.00593152 -0.0164048
117 0.0497558 -0.0121495
268 0.0220569 -0.0564774
93 0.00859474 -0.0295254
2 -0.0307524 0.0721055
29 0.0524079 0.0526225
355 -0.0105827 -0.0224814
376 0.0222736 0.0282034
320 -0.0581424 0.00841482
345 0.0335239 -0.028879
210 0.0135068 -0.0099137
140 -0.0111576 -0.032509
9 0.0172027 -0.00179489
288 -0.028705 0.0361673
30 -0.0236275 0.022449
316 -0.00365106 -0.0515903
24 -0.0232072 0.0540955
127 -0.00641568 -0.0246218
138 -0.00849678 0.0143901
94 0.00386392 0.0398816
363 0.00653637 -0.0378527
104 -0.00270881 0.010314
303 0.0370638 -0.00206197
89 0.0255926 0.0018988
153 0.064541 -0.0302299
55 -0.00216886 -0.0470022
130 -0.0125643 0.0321118
379 -0.0208591 -0.0070407
368 -0.00442413 0.0138078
12 -0.0155713 -0.0460281
223 -0.0196281 0.0292937
44 -0.0074169 -0.0617558
106 0.029314 0.0465289
152 -0.0488239 -0.0601514
82 0.0193168 -0.0655313
57 -0.00765008 -0.0181487
259 0.0107875 -0.00518744
177 0.0448244 -0.00988836
396 -0.00328796 0.00182446
342 0.0166046 0.0230501
362 -0.0489927 0.0527039
60 0.0246677 0.0355227
73 -0.0313545 0.0119729
206 -0.0519207 0.00663901
67 -0.0253132 -0.0134743
352 -0.0547844 0.00677201
1 -0.0263421 -0.0292453
97 0.028994 -0.00533457
380 -0.0160488 -0.00745347
20 0.0353633 0.0134813
143 0.0423804 0.0109573
33 0.0288519 -0.00904844
291 0.00870325 0.0424077
370 -0.0115067 -0.0193426
132 0.0448516 -0.0046529
38 -0.00995967 -0.00749349
99 -0.0113561 0.0281964
43 -0.00613435 0.0186186
378 -0.0197234 -0.0257451
63 -0.00503354 -0.0212863
270 -0.0247763 0.0606959
91 0.00921263 -0.0559497
317 0.00149329 -0.0200733
209 0.00270464 0.0206521
79 0.057105 0.0115458
139 0.00211403 -0.00671066
328 -0.0576916 0.0120637
162 0.0664047 -0.0135271
136 0.00308382 -0.0300997
76 -0.0287667 0.0189264
37 -0.0622214 -0.0100572
56 0.0324824 0.0290987
239 0.0136383 -0.0309609
81 0.00830303 0.0219736
201 -0.0279708 -0.0328047
87 -0.00774296 0.000201536
25 0.0317317 -0.0182706
6 -0.0604694 0.0378909
390 -0.00214563 0.0209419
75 0.0287167 0.00521311
54 -0.00906181 -0.00212791
174 -0.0148695 0.0259359
137 0.00782095 -0.0200801
77 0.00893272 0.0246886
4 -0.0293625 -0.0471966
145 0.0538629 0.0157473
68 0.0602822 -0.0127911
255 -0.00551284 0.0192867
115 -0.0939002 -0.00371163
51 -0.02912 0.0249953
134 0.0384345 -0.0239294
218 0.00559289 0.0128932
178 0.0428813 0.0470338
83 0.0449323 -0.0239198
281 -0.00677682 -0.02269
22 0.0195964 0.042557
45 0.01455 0.0270522
52 0.0325074 -0.0165138
26 0.0653693 0.016102
204 0.0127417 0.000113927
271 0.00605407 0.0552909
173 -0.0320683 -0.00750902
7 -0.0103254 0.0190376
78 0.0145309 -0.0182596
121 -0.0366246 0.0188891
275 0.0391511 -0.0251232
181 -0.0202332 -0.0133197
366 0.0175546 0.0113192
169 0.0229681 0.0311671
69 -0.0302566 -0.0202795
85 -0.0608656 -0.0112095
124 0.0716846 -0.00494716
208 0.0453962 -0.0476961
197 0.0699873 -0.0329884
112 -0.0178518 -0.0057555
58 -0.0453713 -0.0355378
103 -0.0104526 0.00154335
80 -0.0113187 0.0236374
301 0.0322531 -0.037831
120 0.00418478 -0.00297701
5 0.0238194 0.0295746
88 0.00452212 0.0433538
186 0.0601368 0.0784693
172 -0.0387728 -0.0205024
175 0.0230566 0.00599482
356 -0.0326511 0.0191664
252 -0.017296 -0.0767944
217 -0.0432974 0.0263343
157 0.00067171 -0.0157347
179 -0.00690668 0.00755984
154 0.0226203 -0.0250141
66 0.0259019 0.0265249
151 0.0755494 0.0360317
111 -0.0398544 -0.0125884
50 0.0135637 0.0128376
23 -0.0137131 0.0418477
119 -0.00415102 0.0243005
161 0.0170608 -0.0504557
254 -0.00346909 0.0130638
221 -0.0159015 -0.0130342
159 -0.0140066 -0.0305291
182 0.0322776 0.0303578
180 0.0342862 -0.0348468
123 0.053635 0.0105392
113 0.00967327 0.0363878
334 0.0378805 0.00616157
195 0.0304244 0.0248788
202 -0.00641798 -0.0255808
144 0.0413573 0.024269
244 -0.00147493 0.012124
324 0.000556594 -0.040985
125 0.0396733 0.0120078
141 -0.00812248 0.00394286
107 0.00843148 -0.0265879
213 0.0174891 -0.015035
214 -0.0887349 0.0214745
297 -0.0176148 0.000621915
116 0.00797026 -0.0112555
36 -0.00168584 -0.0340044
164 0.0138527 -0.0447992
128 -0.036988 0.0566324
65 0.0463743 0.0282644
46 -0.0205759 0.0200559
216 -0.00382848 -0.00560943
155 0.0327224 0.0166546
335 -0.000902193 0.0345171
278 -0.0261776 0.0154857
194 0.000988735 0.0116309
235 -0.015098 -0.0361611
233 0.0158494 -0.0172931
219 0.0306172 0.0416287
185 -0.0769365 -0.0195959
385 -0.0540779 0.0216145
105 0.0371392 -0.0241538
183 0.0531702 0.00771328
227 0.01327 -0.00794274
171 0.0665439 -0.0565776
98 0.0746937 0.00418305
266 0.00993521 0.040814
131 0.0113008 0.00504452
70 0.053953 -0.00720837
226 0.0333353 0.00117748
374 -0.0119829 -0.0730106
285 0.0156037 0.0266454
215 0.0200547 0.0129373
279 -0.0328679 0.00685593
260 -0.000608562 0.0147196
126 -0.016442 0.0576463
146 -0.011698 -0.0249826
170 -0.00429149 -0.00566211
14 0.00394505 -0.00582992
192 -0.0218183 0.00526035
200 0.0424551 0.0341968
95 -0.000586028 0.0457684
307 0.00876738 0.0269591
100 0.0241083 -0.0426862
199 0.00378958 -0.02605
118 -0.00343082 -0.0502872
148 -0.00970566 -0.0272976
310 -0.0154737 -0.0138926
296 -0.000758067 -0.00516307
394 0.0347812 -0.00789049
163 0.00933498 -0.0115154
282 0.0107486 0.0288914
323 0.000461222 -0.00179499
364 0.0182783 -0.0281686
188 0.0123791 0.0030348
142 -0.0121412 0.00141749
292 0.00686268 -0.0115282
135 -0.0318532 -0.000274293
314 -0.0393178 0.0584454
196 -0.0175651 -0.0207013
231 0.0015596 -0.00690806
384 0.0288282 -0.000657295
240 -0.00458461 0.0738908
28 0.0353911 0.0359139
48 0.0635986 -0.0373756
236 0.0383819 0.0249226
253 0.0314546 0.0735422
193 -0.00827193 -0.0197548
149 0.0679504 0.00358391
191 0.0605561 -0.0235199
158 0.00061365 -0.0130461
393 -0.0297476 -0.00804779
165 -0.0430195 0.00570151
133 -0.00461628 0.00545449
184 0.0112387 0.00284628
211 0.00672883 0.0296368
147 -0.00028982 0.0143722
92 0.00612642 0.0200429
150 -0.00025757 0.0312434
256 0.00114614 -0.0497862
318 -0.0307842 -0.0137891
299 0.00850214 0.018552
304 0.0424395 0.0158636
167 -0.0437389 -0.00197258
34 -0.0139671 -0.00515006
313 -0.0286563 -0.0508076
263 0.0228405 -0.00261145
359 0.0353408 0.0214124
311 0.0559379 -0.0257144
156 -0.0552937 0.00565993
354 0.00689183 0.00366473
398 0.0747108 0.0421455
234 0.0451755 -0.0355098
261 -0.0006455 0.00516186
247 0.00763107 -0.0302533
166 -0.00455055 -0.00657242
248 -0.0102771 0.0104383
241 0.0159214 0.022063
309 0.00467118 -0.00652747
294 -0.0454739 0.00111278
273 -0.00296168 0.0396282
277 0.0202168 0.0323922
245 -0.0116875 -0.00577667
329 0.0239711 0.000124253
205 -0.00657438 0.0156909
358 0.0334662 -0.0139856
327 0.00450435 -0.0229782
238 0.0150841 -0.0462913
265 0.0370605 -0.0326688
386 0.000807709 0.0232186
365 0.0621236 -0.0256654
333 0.0160792 -0.0198495
32 0.0383028 -0.00106923
269 -0.00135042 0.0170274
373 -0.000281837 0.0135014
242 0.000684365 -0.0121314
243 0.00364185 0.0351692
207 -0.0115742 0.0287682
371 0.0211804 -0.022544
267 -0.00738439 0.00904831
212 -0.0405857 -0.00323912
190 0.0604446 -0.00242847
319 -0.0230169 -0.0440265
15 -0.0229896 -0.00934614
341 -0.0276342 -0.00196878
286 -0.0244624 0.0555319
284 -0.0150116 0.0141511
176 -0.0212196 -0.0118981
84 -0.0320056 0.0298033
360 0.0118491 0.00464204
264 0.0255377 0.0106723
168 0.0234634 0.000420367
392 0.010378 0.00966773
397 0.0291118 0.00824978
369 -0.0321126 0.0273615
367 0.0484935 0.0364387
49 -0.0194123 -0.00127808
250 0.0209838 -0.0206551
289 -0.0316945 0.0392502
90 0.0258203 -0.041073
399 0.0245398 -0.0300934
375 0.0148635 0.0625371
258 0.000801458 0.0106847
224 -0.0540873 0.0517776
276 0.026918 -0.0104853
321 0.0199277 -0.0228473
305 -0.0134397 -0.0352032
272 0.0394483 0.0811853
225 0.00942532 -0.042382
348 -0.00360059 0.00772144
16 0.0366641 0.0154855
237 -0.017295 0.0419343
274 -0.0153884 -0.042929
300 0.00182068 0.0462905
251 0.0179722 0.0327863
322 0.038264 -0.000875921
344 -0.00234667 -0.00384185
262 0.0221312 -0.00459598
246 0.0287888 -0.0857917
325 -0.0374568 0.0509007
189 0.0583573 -0.0358291
61 0.0281386 -0.0155586
340 0.0761135 0.00792096
198 0.0536098 0.0547297
129 -0.054538 -0.0152351
346 -0.0536603 0.0297456
347 0.0134911 0.00785684
308 0.0104614 -0.0370773
230 0.0476395 0.00210951
229 -0.0383859 0.0018443
287 0.0114626 0.00889081
220 -0.0150421 -0.00750978
302 0.0565195 -0.00387799
203 -0.0385591 0.00407215
343 -0.0240538 0.0323837
62 -0.0360839 0.0154708
249 -0.0357674 -0.0623785
11 -0.0442206 -0.0293058
228 0.0307948 0.0345642
3 -0.0193431 0.04698
295 0.0180134 -0.0208574
336 0.0306702 0.0267108
382 -0.0413858 0.0411905
21 -0.00476115 -0.00134518
47 0.0546515 -0.00698358
381 0.0153868 -0.033994
42 0.0173579 -0.0469397
337 -0.028649 0.0429905
13 0.0423281 0.0741859
306 -0.0084014 0.0102962
108 0.0357035 -0.0469292
377 -0.0639975 0.00322288
122 -0.0154171 -0.0218212
18 -0.0136735 -0.0476163
17 0.0200953 -0.0282119
35 -0.0392726 0.0229552
338 0.0203857 0.0213696
59 -0.0318768 -0.130271
41 0.0378867 -0.0205459
298 -0.0533804 0.00186138
330 0.000316868 -0.00902304
372 0.00432949 -0.000302519
332 -0.0608726 -0.0263193
290 -0.0608956 -0.0201706
389 -0.0218567 -0.0493056
39 -0.020434 -0.0192947
40 0.0236333 -0.0317344
53 0.0161091 -0.0133287
232 -0.0194214 -0.00227417
331 -0.0123321 -0.0235616
101 -0.00438329 0.0297159
64 -0.0396917 0.0329309
114 0.000109722 0.00220737
187 -0.0395501 0.0140655
71 0.0417559 0.0462723
312 0.0184335 -0.00578666
357 0.0169105 0.00236401
383 -0.0427296 -0.0221677
315 0.00451415 -0.00311953
353 0.00950348 -0.054978
293 0.042645 -0.000163356
280 0.0485288 0.0410428
222 -0.0305839 0.0421042
350 0.0205556 -0.0749838
351 -0.0318026 0.0123744
283 0.0421884 -0.0548869
388 -0.0724207 -0.0195593
349 -0.0087549 0.025923
361 -0.0121471 -0.0505098
72 -0.011687 0.00437948
31 -0.0182156 0.00666876
395 -0.000380342 -0.054087
387 0.0305967 -0.0148124
257 -0.0285705 0.0378899
