ITEM: TIMESTEP
11000000
ITEM: NUMBER OF ATOMS
400
ITEM: BOX BOUNDS pp pp pp
0.0000000000000000e+00 2.0000000000000000e+01
0.0000000000000000e+00 2.0000000000000000e+01
-5.0000000000000000e-01 5.0000000000000000e-01
ITEM: ATOMS id vx vy
223 -0.0393971 -0.0307286
330 -0.0453415 -0.00437147
228 0.0216619 0.0302913
13 0.0136631 0.0813066
29 0.0872562 -0.0447293
71 -0.0518369 0.0411599
53 -0.0229754 0.012611
357 0.0182658 0.0451403
138 0.00900008 -0.017442
127 0.0206752 -0.00839435
12 0.027478 -0.0202477
339 -0.0182603 0.0304114
8 -0.0111091 0.0610562
93 0.00209878 0.0210129
27 -0.0220044 -0.0176168
2 -0.0555077 -0.0393655
30 -0.00383677 -0.0405369
74 -0.000608197 -0.00522711
316 0.0311131 0.0681127
355 0.0120532 0.0167108
86 0.0216454 0.00785634
378 -0.0296585 -0.0546248
64 -0.00669155 0.0491402
10 0.0462991 0.00434535
102 -0.000747008 0.0457253
372 0.0343449 0.0502047
388 -0.0473781 0.0209388
153 -0.0123896 0.0562041
152 -0.017874 -0.0135532
130 -0.0241962 -0.0629434
379 -0.0238181 -0.0221618
24 0.0142393 0.0180659
31 0.0296975 0.0339039
132 0.0293306 -0.0892581
320 -0.0107374 0.0130722
345 0.0371665 -0.0653556
101 0.0250278 0.0488683
210 0.00268875 0.0338102
326 -0.0135616 -0.0546535
109 -0.00464949 0.0115835
351 0.0248258 -0.0568794
400 -0.06477 0.0239991
99 0.0401324 -0.0534136
177 -0.0317136 0.0397055
94 -0.0233892 0.0154876
380 0.0510193 0.00664525
104 -0.0229498 0.035521
140 -0.0193243 0.00746971
288 0.0256812 -0.0131898
143 -0.0170192 0.0372897
91 -0.0338182 0.00683448
352 0.05022 -0.0126173
19 0.0166917 0.00117006
82 -0.00835477 0.0391753
368 0.0473957 -0.0151313
1 0.0588104 0.023342
38 -0.0252773 0.0167887
376 -0.0203566 -0.0315377
57 0.0276045 0.0164326
81 -0.00222548 0.0467329
396 -0.0179003 0.0116726
362 0.0216811 -0.0597348
363 -0.0277862 0.0273868
60 0.0136806 -0.0614473
9 -0.00325335 0.0229826
206 0.042553 0.0315922
55 0.0234573 -0.0366278
136 -2.35825e-05 0.0348885
37 0.00776931 -0.0195612
56 0.0288618 -0.0027307
97 0.0107124 0.025488
342 -0.0136668 0.00993924
20 0.0198356 -0.00584404
390 -0.023305 -0.0246707
25 0.00748545 0.0245611
173 -0.0825377 -0.0453309
51 -0.0256846 0.011437
83 -0.0417421 0.0117559
259 -0.00730939 -0.0169321
79 0.0073284 -0.0149358
239 0.0524609 0.024275
73 -0.0273366 -0.046879
45 0.0135155 0.0323736
44 -0.0350333 -0.0356091
89 -0.0678252 0.0338907
303 -0.0124951 -0.0124851
6 -0.019068 -0.0181061
291 -0.00351814 0.0212593
317 0.00398593 0.0890795
174 1.27845e-05 0.0128919
137 0.0208859 -0.00933236
43 0.0556106 0.0186033
63 -0.0794246 0.0211137
169 -0.0144156 -0.0184157
270 -0.0498267 0.0386807
87 -0.0317265 -0.00428418
106 0.0151194 -0.0158686
68 -0.0106666 -0.0296628
255 0.0155722 0.00614861
115 0.0393799 0.00970719
75 0.0199374 -0.0279751
54 0.0010906 0.00400684
275 -0.0176589 -0.0334053
4 -0.000591518 0.00993395
139 -0.00476557 -0.00204244
201 -0.0226613 0.0231791
69 0.0319416 0.0248002
26 0.0300083 0.0286351
204 0.0371937 0.00715529
134 0.018999 -0.0455177
370 -0.0231156 0.0610075
76 0.0219272 0.0136666
281 -0.0431994 0.0236047
77 0.0319312 0.0140963
328 -0.0246496 0.0222599
366 0.00939415 0.0418087
22 0.0104388 0.0324028
159 0.0335963 -0.00732028
65 0.0799228 -0.0776603
208 0.0283382 -0.000952249
172 -0.0326158 0.00437901
111 0.0483371 -0.0284401
112 0.0140745 -0.0148607
218 0.0130015 0.00584521
103 -0.0275924 0.0308416
181 0.0255204 -0.0592212
85 0.0034071 -0.0457272
186 0.00434107 -0.0689459
123 -0.0223517 0.00697624
151 0.00638304 0.0129502
197 0.0302388 0.0150789
209 -0.0285557 0.0298226
252 0.044386 -0.00111184
52 -0.00727383 0.0457784
162 -0.0242221 -0.0177907
145 0.0196744 0.0109325
66 0.023026 0.00353786
124 0.0425599 -0.0298059
180 -0.0131304 0.00511318
175 -0.00567128 -0.0220217
7 -0.0212786 0.0190677
235 0.0363842 -0.0282351
58 0.0397185 0.0151122
78 0.00484945 0.0834535
301 0.0327023 -0.000727069
128 0.033145 -0.00105147
182 0.0261741 -0.0195979
202 -0.000175967 0.00226938
178 0.00955845 0.0110556
157 0.0154044 0.0235967
217 0.0441926 0.0571328
119 0.0127318 -0.0211257
213 -0.00789278 -0.0224902
113 -0.0354898 -0.0234072
334 0.0642798 -0.0277641
278 -0.0211097 0.0325337
374 -0.0159996 0.00849971
215 -0.00829131 -0.0302001
356 0.0115565 -0.0144535
125 0.0474699 -0.0491786
179 0.0233662 -0.0259431
154 -0.0636293 0.0693749
120 0.0190413 -0.014443
107 -0.0167041 0.0658535
98 -0.0128349 -0.0303684
171 0.0182737 -0.0601402
214 -0.0273026 0.0538085
195 0.017123 -0.00896528
233 -0.0277085 -0.017219
161 -0.00185015 0.00584735
121 -0.0100445 0.0100454
164 -0.0352629 0.0222904
5 0.0186314 0.0241712
118 -0.00957695 -0.025375
36 -0.0100361 -0.0617951
80 -0.0142643 -0.0144757
219 -0.0171803 -0.00857262
141 -0.0420161 0.0258594
184 0.015352 -0.106849
216 -0.0114674 0.0638802
148 -0.0539459 0.0124376
296 -0.0144573 -0.0245028
297 0.00675334 -0.0190871
144 -0.020799 0.0370529
385 0.0213591 0.0207439
244 -0.057404 -0.0278707
324 0.0422019 0.0300051
364 0.00685801 0.0319448
88 0.0188211 0.0347095
271 0.01351 0.0143857
50 -0.0418238 0.026027
135 0.0693288 -0.0144069
163 -0.0384359 -0.0281984
254 0.03628 0.034297
221 0.0367621 -0.0107041
188 0.00571911 -0.000734881
227 -0.0068227 0.0417752
14 -0.00861978 0.0302054
46 0.0496766 0.0260503
48 0.0505036 -0.00177752
155 0.0422592 -0.00044178
70 0.0364124 0.0355298
193 -0.0183414 -0.0229357
185 0.0424552 0.0155952
146 0.00495092 0.038338
253 -0.0150478 -0.00864153
335 -0.0142569 0.0302341
266 0.0322215 0.0084032
116 0.0145459 0.0432293
194 0.0296377 0.0160867
394 -0.0258926 -0.0336432
279 0.0248094 0.0224229
158 0.0519445 -0.0346318
100 -0.0161389 0.0266216
393 -0.0535341 -0.0133898
142 -0.0115744 -0.0178426
28 -0.00477598 0.0117949
170 -0.0107101 -0.0372667
313 -0.0552505 -0.00295214
285 0.00410157 -0.0192475
95 0.0281746 0.00617646
196 0.0344963 -0.0188194
318 0.0286201 -0.033133
231 0.0162349 0.000696342
234 0.0469963 -0.0140572
199 0.027468 -0.00394229
183 -0.000516022 0.0263519
34 0.00514933 -0.0518489
294 -0.0372482 0.00671212
211 0.0253518 -0.0024481
131 0.0213069 0.0292002
226 0.0221974 -0.00922383
23 0.0287622 0.0710792
126 -0.00286283 0.0255248
133 -0.0104942 0.0555211
166 0.017637 -0.0116333
277 -0.06766 -0.029142
284 0.0396754 -0.00287526
192 0.0746258 -0.00238946
256 0.0325142 0.00736354
105 -0.00673871 -0.0147319
165 0.00695066 -0.0286823
358 0.00155894 -0.0447128
299 0.0130859 0.00703679
384 0.0077152 0.0471466
240 -0.0106698 0.00996796
241 0.0241505 -0.0765941
92 0.007756 -0.00986657
310 -0.0522132 -0.0357034
245 -0.0493982 0.0498037
292 -0.0325438 0.0985396
150 0.019658 -0.0156575
200 0.0206833 0.000505303
307 -0.077198 0.0473684
282 0.00600693 0.0517763
398 -0.045384 0.0226296
304 0.0509406 -0.0123381
247 -0.0131476 0.00760904
347 0.0472673 -0.0419099
32 0.0097254 0.00139386
236 -0.0212961 0.00991185
15 -0.00397542 0.00783581
311 -0.0113431 0.0333652
156 0.046072 -0.018321
191 -0.0345797 0.019671
260 0.021391 0.0219351
84 0.0703775 -0.0101738
238 -0.0235729 -0.0534799
323 -0.00043598 0.0464835
265 -0.0151145 0.0283175
248 -0.00493013 -0.0336185
167 0.00412121 -0.0627514
309 0.0253359 -0.0193748
273 0.01287 0.00968621
263 -0.00885387 0.0141491
373 0.0561357 -0.0314094
359 -0.0402073 0.0166899
341 0.00551824 -0.0165192
314 0.0181627 0.0729754
354 -0.0299954 0.0162967
149 -0.0489222 0.0356609
176 -0.0084793 -0.0263072
276 -0.0207442 -0.00858307
327 -0.0418439 0.00166935
243 -0.0234819 -0.00880193
207 0.0241263 -0.00321349
264 -0.0324878 -0.00425768
49 -0.0235955 -0.0209352
386 -0.0145866 0.0173666
365 0.0254536 0.00788236
333 0.00256105 -0.0435963
168 -0.0137584 -0.0113068
237 -0.0135226 -0.0157344
360 -0.0569521 -0.0263066
262 0.00984321 -0.0548894
371 0.0160024 0.0495
269 -0.000978109 -0.0467325
147 -0.0109462 0.0189678
189 0.00344661 0.0160959
61 -0.00492247 0.072469
399 0.0444469 0.00924391
205 -0.00390766 0.0380138
258 -0.00905212 -0.00890503
261 -0.0117524 0.0205696
369 -0.0335547 -0.0539225
224 0.0562261 0.0340361
308 0.00794084 0.0141035
267 0.0346262 0.0247555
250 -0.0219655 -0.00822371
289 -0.00546829 -0.0138733
190 -0.0448076 0.00717957
16 -0.02419 -0.0227156
336 -0.0710947 -0.0542539
286 -0.0164873 -0.0172255
274 -0.0362791 0.002602
300 -0.0331099 0.000774959
329 0.0335994 -0.0162634
397 -0.0274956 -0.0409491
242 0.0112052 0.0173058
225 0.0189083 -0.0286702
392 -0.0176011 0.0528344
90 -0.0358149 -0.0178739
343 -0.0500778 0.0301985
203 -0.0449973 -0.0218586
47 0.0170993 0.0217427
346 -0.0347062 -0.0409314
321 0.00771526 0.0314288
367 0.03263 -0.0140337
361 0.00991315 0.00513791
348 0.00601423 0.0226372
3 0.0189238 -0.00808771
212 -0.00482181 0.0464113
18 -0.0051262 -0.0334948
59 0.0607276 -0.0055793
198 -0.00688499 0.0204917
129 -0.0118661 0.0161105
305 0.00190865 0.0197072
272 -0.0040546 0.048352
246 -0.00787699 0.0142452
230 -0.0185812 -0.0480466
325 -0.0327587 -0.0128646
229 0.0239875 0.00635642
319 0.0308781 0.0106828
340 -0.0410719 0.0103566
375 0.00878888 -0.0271305
353 -0.0366304 -0.0237058
21 -0.0043639 -0.0202894
251 -0.0436363 0.00378923
62 0.0016096 0.00816965
322 -0.00909604 0.0197118
344 0.0336063 0.0083962
11 0.00315673 0.0165278
114 -0.0284188 0.0263009
108 0.0046384 0.021523
306 0.0119939 0.0155878
187 0.0469186 -0.0441966
389 -0.035996 0.00255846
377 -0.0186558 0.0354112
287 0.0487242 -0.0143517
17 0.0449747 -0.0340005
220 0.0115748 -0.00102697
382 -0.00558212 0.00392578
280 0.0422817 -0.0499289
160 -0.0219808 0.00219156
39 0.0108395 0.028207
312 -0.0284863 0.00639613
338 -0.0247601 -0.00319773
42 0.0067055 0.0188666
337 -0.00587955 0.0341625
332 0.0135791 -0.0363253
110 0.0195613 0.0394098
232 -0.0293439 -0.0373204
295 -0.0108224 0.0497563
331 0.0310769 -0.0121616
302 0.0073923 -0.00160438
293 0.0559271 0.0388624
381 -0.0459013 0.0430294
298 -0.0367536 -0.0714792
117 -0.0136976 0.00180071
391 0.0119626 0.0514783
283 -0.0308563 0.0250302
290 -0.00503504 0.0139249
33 -0.0487998 -0.0277907
72 0.00440761 -0.0160108
122 -0.00437089 0.0596043
383 0.0112915 0.0344165
257 -0.0197985 -0.0496852
96 0.0462962 0.000375626
41 -0.017675 0.0268842
222 0.0624715 0.025459
249 -0.0462068 0.00668962
350 -0.0127558 0.0186249
268 0.00685166 -0.038961
349 0.0026145 0.0249592
67 -0.00238727 -0.0279426
40 0.0363749 -0.00338498
315 0.0127223 -0.0400096
395 0.0273317 -8.80738e-06
35 0.0524528 0.025246
387 0.00646638 -0.0338662
