ITEM: TIMESTEP
12000000
ITEM: NUMBER OF ATOMS
400
ITEM: BOX BOUNDS pp pp pp
0.0000000000000000e+00 2.0000000000000000e+01
0.0000000000000000e+00 2.0000000000000000e+01
-5.0000000000000000e-01 5.0000000000000000e-01
ITEM: ATOMS id vx vy
387 0.0433221 0.00112767
97 -0.0248006 0.0110774
117 -0.0498146 -0.0506211
10 -0.0374785 0.00905006
173 -0.0234748 -0.0152654
39 0.0308857 -0.00845228
302 0.0129494 0.02071
86 0.044544 -0.0751979
362 0.0361513 0.00437811
339 0.00588036 0.0235981
268 -0.00972864 -0.00372631
351 0.00414729 0.0186964
93 -0.00648957 0.0015625
71 0.0172232 -0.00724356
130 -0.018037 0.0141823
25 0.0355149 -0.0281134
40 0.0350869 0.00454691
35 0.00538075 -0.0389933
355 -0.0217288 0.0300615
395 0.0153303 0.0181418
101 0.0344646 -0.0119988
337 -0.0482098 -0.0068187
391 0.0112857 0.0170742
143 0.0398935 0.0296616
400 -0.0197162 0.0141704
2 -0.0491961 0.0524865
127 0.0460763 0.0340254
137 -0.0137866 -0.0622331
326 -0.0100067 0.0270186
350 0.00656003 0.0214864
42 -0.00820464 0.0270998
388 -0.0355985 0.0166467
288 -0.00843102 0.00469818
51 0.010137 0.027781
316 -0.0149671 0.0403116
320 0.0392425 -0.0140279
81 -0.0226774 -0.0253118
363 0.021037 -0.0257759
64 -0.0214478 0.0336953
228 -0.0369533 0.0235434
206 0.0543886 0.0120103
72 -0.0328957 0.0513338
30 -0.0214074 -0.00721246
19 -0.0202539 -0.0784345
1 0.0165127 -0.063359
56 0.00856296 -0.00826963
239 0.0486017 -0.0148095
380 -0.0541345 -0.0252357
102 -0.0255231 0.0236273
109 -0.013392 0.0358121
8 0.0794166 0.00281692
9 0.0216615 0.0141835
303 0.0359489 -0.0184211
91 0.00859939 -0.0168588
152 -0.0294802 0.025088
82 0.00719774 -0.0468479
24 -0.018501 -0.0541602
37 0.0232977 -0.0187623
345 0.0159054 -0.00164625
77 -0.00928884 -0.0437827
372 -0.00841801 -0.0438351
390 0.0272395 -0.00790829
153 -0.0242666 -0.033049
134 0.00719817 0.0534126
370 0.0108483 0.0507317
74 0.0507982 0.0623164
54 0.0267903 0.020432
83 0.0616186 -0.0202259
177 0.00711881 -0.021555
94 -0.0356873 -0.00280528
275 0.0131138 -0.00120433
4 -0.0456743 -0.0187061
140 -0.0322609 -0.0235953
44 -0.0296973 -0.0127759
6 0.0122653 -0.00690585
111 -0.0331143 -0.0581513
352 0.0250647 0.07057
136 -0.00622647 -0.0341402
76 0.0248319 -0.00977877
235 0.0758834 -0.0119432
79 -0.0149949 -0.026034
396 -0.00652473 0.0274387
60 0.0140077 -0.006643
68 0.0105051 -0.0198414
26 -0.01417 -0.00267619
65 -0.00624479 0.00267179
204 0.0336439 0.00706004
180 0.0476586 0.00355541
202 0.0518427 -0.00205696
317 0.0125524 0.0503106
58 0.0459926 -0.0143954
57 -0.011707 0.0227114
252 0.0198483 -0.0341351
73 0.0265419 -0.00921981
20 0.0369622 0.0315122
104 -0.0129944 -0.0125814
89 0.00640962 -0.00388271
124 -0.0245515 0.0516292
75 -0.0126176 0.0265052
115 -0.0501334 -0.0350415
208 -0.00107243 -0.0230606
112 0.0257128 -0.00866188
38 -0.0182699 0.00680959
259 -0.000479721 -0.0181378
43 -0.00161633 -0.00219218
169 0.0042652 -0.0250396
87 0.0149279 -0.00538673
145 -0.00483188 0.00949575
291 -0.0142055 0.0100375
151 0.0483021 0.015973
209 0.0209005 0.0122215
7 0.00355022 -0.019406
174 0.00267006 0.0211247
80 0.0294196 -0.0448179
157 0.0146866 -0.00209906
45 0.000251513 0.0144105
106 0.0580426 0.0066463
171 0.0113157 -0.0283136
123 0.0115696 -0.0635537
278 0.0632597 -0.00315791
144 0.00921695 -0.0287023
215 -0.00341442 0.00924175
178 -0.0296415 -0.0293943
218 0.035564 -0.0152255
342 -0.035593 0.0321275
139 0.0179108 -0.0668026
22 0.0208687 0.0439517
128 0.00577857 -0.0202642
69 -0.00437286 0.0295732
85 0.0307739 0.00110417
66 -0.0252578 0.0200145
172 0.0225625 0.00196367
186 0.0145312 0.0333881
197 0.00480911 -0.0318266
281 0.0328174 -0.00211448
121 0.0606571 -0.0458855
181 -0.0403796 -0.0206909
63 0.0177676 0.00085959
270 -0.0116548 0.0248798
162 0.0520824 -0.0170451
159 0.0256967 0.0630298
255 0.0123379 0.0273961
271 -0.056759 -0.0351873
184 0.063306 0.00963678
36 -0.0118795 -0.0501608
50 -0.00254249 0.0121097
233 0.0213953 0.0274054
119 0.00656311 0.0455698
52 0.0391111 0.0165882
213 0.00243428 0.0216039
214 0.0256752 0.0477589
219 0.0303201 -0.00859894
328 -0.026498 0.047714
103 -0.0123107 0.00193236
78 -0.00661541 0.00640848
154 0.0125346 0.00494895
201 0.0200126 0.0422099
179 0.0108564 0.0335547
366 0.0375065 0.0111142
254 0.0652673 0.0223459
107 0.0397667 0.012925
182 0.0489544 0.0299068
155 0.0102258 -0.0486881
195 0.00977616 0.0348728
163 0.00745117 0.001423
193 0.0324784 -0.0457175
356 0.0372538 -0.0540067
221 -0.0183395 0.0192819
98 -0.00702714 -0.00681018
113 0.00676899 0.0653871
185 0.0197113 -0.00628249
324 0.0578912 -0.0119134
301 -0.0201929 0.00366302
141 0.0198686 0.00641923
120 -0.0364134 -0.0114858
118 0.0181547 0.00113298
253 -0.0300275 -0.0317092
14 0.0481987 -0.0812648
216 -0.0519988 0.0111386
175 -0.01991 0.00115979
70 -0.0548957 0.020124
334 0.118817 -0.00899382
217 -0.0222311 -0.0127301
125 0.0622533 -0.0882449
164 0.013342 0.00312386
294 0.0174989 -0.0554558
28 -0.0168343 -0.0153287
364 -0.0351326 0.0186004
296 0.0538068 0.0110467
226 -0.0298868 -0.0550283
161 0.028739 -0.0164083
135 0.00411325 -0.0542626
318 -0.0568824 -0.0450398
385 0.0104606 -0.00430525
279 -0.00825855 0.0630365
231 -0.0208664 -0.0228456
5 0.0179312 -0.0268498
88 -0.000712725 0.0266926
297 -0.0064814 -0.0261351
244 0.011248 0.0502639
256 0.0125408 -0.0221303
358 -0.0218995 -0.0173455
188 0.0353404 0.0187308
227 -0.0388147 -0.00688608
313 0.0324358 0.0213509
148 0.0142576 -0.0301277
285 -0.0213501 0.0107952
194 -0.0398512 0.014509
95 0.0418743 0.0204817
158 2.85987e-05 0.0346103
100 -0.0655878 -0.0314056
393 -0.00615191 -0.0146283
34 0.0444846 -0.0235843
277 0.00909846 -0.0234634
146 -0.0293258 0.00374329
335 0.0122253 -0.0646398
48 0.0251619 0.0411827
266 -0.000587552 0.0218288
284 -0.00894199 0.0590043
156 0.0275317 -0.0145206
394 0.0440934 0.0138144
105 0.0252012 0.0517664
240 -0.0282407 0.021312
199 -0.0339779 -0.0242184
166 -0.00254716 0.00194363
170 0.0142701 -0.00844692
310 0.0153443 -0.0143549
46 -0.0477146 -0.00270599
373 0.0374628 -0.0163038
292 -0.0144035 -0.0162911
374 0.0669024 0.0200801
131 0.0693537 -0.00129053
282 -0.0281804 0.0103202
196 -0.0127872 0.0531622
234 -0.0226546 -0.00500837
84 -0.00776358 -0.0175454
304 0.00913716 -0.00749049
183 -0.040418 0.0450933
241 0.0242188 0.0218984
32 -0.0110482 0.0435101
263 -0.0237949 -0.032994
15 0.0241416 -0.00499323
16 0.00276669 -0.0121904
307 0.0392908 -0.0576096
192 -0.02958 -0.0295837
398 0.0247369 -0.0213179
165 -0.00774986 0.0408651
369 0.0344481 0.0125671
299 -0.0604926 -0.015159
384 -0.0460701 0.00909117
142 0.0286912 0.010249
211 -0.0565333 0.0641184
49 0.0669362 -0.0476274
92 -0.03146 -0.0134994
245 -0.0105239 -0.0378933
150 -0.042641 -0.0606282
300 -0.0480867 -0.0379417
258 -0.0471456 0.0142427
260 0.0297013 -0.0161436
23 -0.0336837 0.00288903
126 0.0532955 -0.00861332
167 0.00113334 0.0281475
236 -0.0495961 -0.0167263
168 0.0229161 0.00768952
116 0.0121176 0.0138243
200 0.00906359 -0.0242678
238 -0.0384375 -0.00272978
276 0.001486 0.0107
207 -0.00746363 -0.0172931
347 -0.0362865 0.00626291
365 -0.0237732 -0.0250073
273 -0.052997 -0.00864791
147 -0.038906 0.030081
18 -0.0519261 -0.020699
359 -0.0169809 0.0135797
311 -0.0294491 0.019845
191 0.0515808 -0.0374511
360 0.00680752 0.0302157
59 0.0227217 0.0147001
261 -0.0180775 -0.037424
47 -0.0197814 -0.0410252
133 0.0425331 0.0586191
225 0.0284246 0.00909827
309 -0.0290944 0.0380864
333 -0.0293719 -0.0404941
269 0.0262755 -0.022818
340 -0.0511486 -0.0238636
341 -0.0336179 0.0421175
280 0.0212198 0.0335663
264 -0.00813612 -0.0016025
247 0.0132045 0.0689632
371 -0.048682 -0.0294432
61 0.0282858 0.033863
314 0.0421376 -0.034406
329 0.0432591 -0.0488576
237 0.0304112 -3.44465e-05
346 0.0495095 -0.00186654
230 0.0076928 0.00439811
250 0.00594876 -0.0493364
189 0.0276762 -0.0259975
149 0.0302604 -0.0356968
205 0.0172502 -0.0194578
176 -0.00149461 0.0326923
397 -0.00323182 0.0258954
243 -0.0324336 -0.0234939
248 -0.00721842 0.0310456
262 0.0193906 0.0564764
319 -0.00288369 0.0497666
336 -0.0129826 0.0344626
17 -0.0736071 -0.0516735
354 0.0464122 0.0158163
203 0.0169078 -0.0107192
21 -0.0506552 -0.0728168
265 -0.00665081 -0.0280494
367 -0.0357414 0.00442519
242 -0.0060428 -0.00535019
114 -0.0231474 0.00095071
267 -0.0312882 -0.00105352
289 -0.00836658 0.032483
212 -0.00254236 0.0452692
274 -0.0297835 0.010277
383 0.0126736 0.012012
399 -0.0262765 -0.00733633
220 0.0122402 0.000414154
198 -0.00323153 -0.058706
129 -0.0145615 -0.0148452
160 -0.000447392 0.00934262
251 -0.0479854 0.03318
323 -0.0143066 0.0272372
321 -0.00407196 0.0293279
386 0.0400453 0.0168333
283 -0.00394728 -0.0126926
306 0.0247679 0.0123732
3 -0.0148631 0.0216922
286 -0.0409712 0.0139537
315 -0.0115368 0.0490803
375 -0.0266513 -0.0306979
331 -0.0291895 -0.0113613
222 -0.000631915 0.0242412
62 -0.030095 0.0531872
327 -0.0391357 -0.00169666
332 -0.0314551 -0.0164969
190 -0.0273571 -0.0255045
392 0.056531 0.0265256
343 0.0232494 0.060974
377 -0.00471699 -0.0253955
338 0.0134139 -0.0287691
257 0.0515281 -0.0108025
249 -0.0570725 0.00221952
210 -0.0251152 -0.0566932
224 -0.053653 0.0093402
67 0.0281143 0.0168224
13 -0.0291524 -0.0252436
308 0.0210641 0.0566266
90 0.0425886 0.0411837
361 0.0337001 0.00937189
348 0.0151036 -0.0466294
325 0.0101551 0.0407907
99 0.0349375 0.0227685
31 0.023503 0.0118567
132 -0.00706217 -0.00685176
353 -0.0250129 -0.0260652
41 -0.00931662 0.0446123
298 0.0117377 0.0620724
381 0.0397454 0.043658
322 0.0162195 0.01716
305 0.0260546 0.0584134
344 0.029284 -0.039107
108 -0.0209274 0.00664591
246 0.00562977 0.0210866
187 0.0197356 0.0328894
389 0.000480455 0.0108841
229 0.0403643 -0.0209135
96 0.0146777 -0.0113184
293 0.0585866 0.037878
12 -0.0367381 -0.0237081
11 -0.0159697 -0.0124162
33 -0.0363468 -0.00423931
349 0.0117523 0.0296287
290 0.00684178 -0.0128814
29 -0.00380874 -0.0119806
110 -0.00208654 0.0172837
312 0.0459359 0.0212524
287 0.0302178 -0.017505
357 -0.0225412 -0.0429462
138 0.000653943 -0.0336513
378 -0.00457069 -0.00379951
223 0.0597132 -0.00167013
330 -0.0232216 -0.0239871
272 -0.0246459 -0.00425653
27 0.0108994 -0.0401728
55 0.0398979 -0.0493926
232 -0.019672 -0.0165441
122 0.0488432 0.0053569
379 0.0149352 -0.0500595
53 -0.0130298 -0.00242497
295 -0.0391074 -0.00688539
368 0.0492849 0.0109698
376 0.0140225 -0.00925407
382 0.0160421 0.0658147
