ITEM: TIMESTEP
13000000
ITEM: NUMBER OF ATOMS
400
ITEM: BOX BOUNDS pp pp pp
0.0000000000000000e+00 2.0000000000000000e+01
0.0000000000000000e+00 2.0000000000000000e+01
-5.0000000000000000e-01 5.0000000000000000e-01
ITEM: ATOMS id vx vy
64 -0.0295095 -0.0558699
10 0.0208064 0.00445959
391 -0.0480501 0.0292245
110 -0.00399245 -0.025702
53 0.0621158 -0.024121
138 0.0394122 0.0160568
368 0.0202992 -0.0141674
395 0.0100359 0.0163749
382 0.0187441 0.00357887
101 -0.0105158 0.0520556
91 0.0614315 -0.031545
349 0.0555777 0.0150321
290 0.0324436 0.0303901
232 -0.0210304 -0.0515838
325 0.0268288 0.0643441
122 0.0466654 0.0291411
229 -0.00556608 -0.0131468
40 0.0754833 -0.0328153
35 0.0319276 0.0255481
355 0.0302122 -0.013425
86 -0.0382513 0.0236254
117 0.0500591 -0.0200352
2 -0.0730707 -0.0107749
111 -0.0422324 -0.0677124
308 0.0500807 0.0545573
206 -0.0195697 0.0295975
134 -0.0374986 0.0339459
130 0.0186948 0.036096
25 -0.00221847 -0.00819726
19 0.0163626 0.0158452
51 0.0123821 0.0249183
54 0.00207061 -0.0160711
357 -0.0454064 -0.0135941
320 -0.00548374 -0.00855775
137 -0.0136898 0.000670732
127 0.0171678 -0.0390687
81 0.0306527 0.00703035
239 0.00293157 0.0242585
337 -0.0513876 0.00800794
388 -0.0451533 -0.00418086
400 -0.0321183 0.0160396
72 -0.020826 0.0743601
37 0.0247543 -0.0149088
56 0.0144823 -0.018777
298 0.0119644 -0.0436712
4 0.0105608 -0.0532759
396 -0.00993839 0.0143498
140 -0.0183117 0.0454371
8 0.00873977 0.0309001
9 -0.0402755 0.00105873
173 0.0269545 0.0698498
82 -0.0114748 0.0319118
379 -0.017592 0.0303305
79 -0.0241176 0.0219273
94 0.0266186 0.00194853
77 -0.0207378 0.0320641
109 0.00858853 0.0161625
6 -0.0167401 -0.0312585
153 0.0539759 0.0348496
152 -0.0102933 -0.0428602
390 0.0425315 -0.0405469
74 -0.0175082 0.0375841
177 -0.00144537 0.00586504
345 -0.0154293 -0.0396381
252 0.0349757 0.0020863
228 -0.0196337 0.0295056
363 0.0185473 -0.0126267
89 0.0369154 0.00683335
316 0.00122197 0.000832517
370 0.0195673 -0.0373717
24 -0.0502214 -0.0140665
83 0.000528567 0.0146348
58 -0.0101357 -0.0188366
275 0.0158553 -0.0252355
57 0.0122365 -0.00513885
169 0.0305213 -0.0191059
139 0.0392981 -0.00828709
380 -0.0520194 0.04114
350 -0.0105498 0.0300936
303 0.0174607 0.0540893
145 0.000804813 -0.0368319
65 0.00702299 -0.00379456
204 0.0170175 -0.0312914
144 -0.00375576 -0.00392954
235 -0.0252344 0.0084715
259 0.0290791 0.0254577
43 0.0375156 0.0277098
73 0.00677692 0.0173332
87 0.0016076 -0.0386533
326 -0.0225619 -0.0513963
85 -0.0221444 -0.0152011
68 -0.0328118 0.0437375
255 0.0012035 -0.00492352
30 -0.0600528 -0.00936933
155 -0.0459896 -0.0397637
208 -0.0468467 0.0274486
1 -0.0247575 0.0860438
202 0.00769229 0.00464567
317 0.0269228 -0.00942257
38 -0.00168795 0.0161521
157 -0.0366784 -0.0497326
20 -0.031774 -0.00832188
98 -0.0117114 -0.0568066
26 0.0132639 0.0127639
271 0.017881 -0.0399728
123 -0.0271901 -0.00762413
136 0.0110462 0.0221548
112 0.0187359 0.00910854
178 0.0246443 0.0282183
174 0.0407177 -0.0399219
181 0.0214349 -0.00132012
372 0.00276756 0.0288216
291 0.0245158 -0.0129415
172 -0.0260173 0.038675
186 0.0307212 -0.0392111
180 -0.0474837 0.0377139
352 0.0328982 -0.00759799
76 0.0257831 0.0654161
36 0.0105161 -0.00769953
80 -0.0322057 0.00343713
217 0.0314316 -0.0195711
63 0.0406048 -0.0106739
60 -0.0211815 0.0453215
44 0.0211334 -0.011015
288 0.0268466 0.0220542
278 -0.0533378 0.00937447
296 -0.0161578 0.00209339
115 0.0677974 0.00638591
197 -0.0504007 -0.0298717
7 0.0213136 0.0613055
219 -0.00357701 -0.00811706
78 0.0487254 0.0210592
121 0.0573699 0.023865
218 0.0433544 0.0403485
342 0.00737243 -0.0518182
179 -0.00106506 0.0404154
102 0.0173886 0.0622039
45 -0.0208029 -0.00278774
104 -0.0519489 0.00590187
69 -0.00551849 0.00916363
128 -0.0131186 0.00482151
106 0.0168296 -0.0289237
124 0.0349761 0.0374344
209 0.0194929 0.0541734
215 0.00674626 0.00295431
154 0.00767487 0.0125471
103 0.016672 0.00262555
162 0.07566 0.0266129
14 -0.0125583 -0.00550003
70 -0.0187068 -0.0775304
193 0.0276934 -0.0158332
334 0.0357412 0.0155335
254 -0.0151342 0.035639
221 0.0165688 -0.0669997
216 -0.0326799 -0.00573921
75 -0.0343112 0.0244428
281 0.0729306 -0.0063088
300 -0.0153379 0.0141354
233 -0.0491533 -0.0211668
161 0.0126198 -0.00251573
328 0.0139243 -0.0343921
301 0.0308744 0.0527968
22 -0.00310292 -0.00345427
119 0.0146749 -0.0400488
66 0.0111877 -0.01285
171 0.0376543 -0.00325669
195 0.0127477 -0.0088457
148 -0.0163854 0.0134628
163 -0.0106955 -0.00101467
256 0.0366137 -0.00706212
107 0.0314042 0.054959
213 0.0091361 0.00446525
313 0.0527136 -0.0101739
184 0.00584944 -0.00320873
151 -0.0216472 -0.0591131
50 0.0233792 -0.0233222
356 0.00441616 -0.00163776
385 -0.0294198 -0.0102624
366 0.0119428 -0.0141064
164 -0.0478641 0.0101838
270 0.0257048 0.0202628
120 0.0360496 -0.0463841
182 0.00309081 0.0276416
253 -0.0187438 0.00667984
159 0.0265949 0.0462794
292 -0.0506697 0.0118152
266 0.0596008 -6.39262e-05
285 -0.0153971 0.0217013
226 0.000378921 0.0155229
244 0.0340469 -0.0335084
358 0.0658125 0.00928768
125 0.00896979 0.0166792
324 -0.0555279 -0.0309761
118 0.00641369 -0.0168924
88 -0.00432238 0.0149872
335 0.0263484 -0.0150082
214 -0.0398257 0.0354091
297 0.0271313 0.00975154
135 -0.0470708 0.00852034
394 -0.00746557 -0.0511637
318 0.0131075 -0.0133724
231 -0.015816 0.0283549
52 0.0484705 0.0458719
34 -0.0303957 -0.0118686
263 -0.0571319 -0.0108678
175 -0.0104405 -0.000704959
48 0.0475142 0.025304
156 -0.0116694 -0.00648856
95 -0.00694163 0.0251092
84 -0.036758 0.00671175
240 0.0300837 -0.0487116
141 0.0444533 -0.0331979
188 0.0531844 -0.0616043
294 -0.0196846 -0.0187032
5 0.0389588 0.0720531
113 0.0600771 0.0100686
374 0.0353813 -0.0509278
282 -0.0208716 -0.0143977
131 -0.0371113 0.0589326
194 -0.0455917 0.0454155
279 0.0308488 -0.021301
185 -0.0589338 0.0148241
170 0.0456557 0.0544612
364 0.00568454 0.0140666
146 -0.0329556 0.0518367
32 0.0634903 -0.0190218
16 -0.0478947 -0.0158714
191 -0.0852553 -0.068998
196 -0.0647221 -0.0429665
201 -0.0107172 -0.0457706
393 -0.0264301 0.0115033
304 0.0104938 -0.00394577
166 -0.00684509 -0.00364842
277 0.0262182 -0.00225943
241 0.0299259 -0.0366867
310 0.00387477 -0.0018337
373 -0.037664 -0.0277535
359 -0.0106741 -0.0406543
192 -0.0388388 -0.0116099
398 0.00720785 0.0260646
165 -0.0111215 -0.0350068
329 -0.00220975 -0.0305743
100 0.0308595 0.0411789
158 0.0447872 -0.0193632
105 0.0257243 -0.00258939
234 -0.0381652 0.0270001
199 0.0401457 0.00382911
384 -0.0325176 0.00223032
183 -0.0592432 0.00851234
49 0.0170563 -0.00511264
245 0.0150188 0.0308723
18 -0.0531511 0.0461348
314 0.0108274 -0.0270502
284 -0.0186004 -0.00101042
23 -0.00374274 0.00119639
360 0.0533017 -0.0536917
299 0.0204071 -0.00986151
211 -0.0142081 -0.0119129
236 -0.00941819 -0.0471359
92 0.0146698 0.0152694
46 0.0481276 -0.00907738
168 0.0137747 -0.00645131
269 0.0362023 -0.0648443
307 -0.0483571 0.0249733
205 0.0180992 0.045289
238 0.00681138 0.00874038
126 0.00395403 -0.0151979
369 0.0539848 -0.00429301
142 -0.0387582 0.0224487
28 0.034312 0.0958998
225 0.0203499 -0.0377693
273 0.0552078 -0.0200519
200 -0.0064559 -0.0260012
258 -0.0102821 -0.0277743
260 0.0393653 -0.0299857
59 0.0135055 -0.0394657
133 0.0247638 0.0202815
207 -0.0156083 0.0192857
347 -0.0411771 -0.0440239
365 -0.0262224 -0.0526079
227 0.0274131 0.00378104
371 -0.0131201 0.0303721
333 0.0648594 0.0390799
15 0.0277652 -0.0523272
150 0.0124553 0.00271854
276 -0.0165175 -0.0361281
309 -0.0113895 -0.0102353
338 -0.00451296 0.00469814
116 0.0296391 0.0423997
198 0.0472228 0.0422095
340 -0.025289 0.0175233
354 0.0378138 0.00369033
149 0.0553507 -0.010223
203 0.0524345 -0.000665576
220 0.0698787 0.00800219
397 0.0390691 0.0456858
129 -0.0067897 -0.0139345
261 0.0145691 0.0154153
243 0.0456702 -0.0168919
47 0.0224727 0.0140436
167 -0.0160127 0.00154575
262 -0.0241951 -0.0431351
230 -0.0212007 0.0143055
311 0.012041 0.0125189
212 0.0823225 -0.0180378
61 -0.0626147 0.00921697
399 0.0315949 0.0208494
21 0.00145205 -0.0019231
265 -0.00524264 -0.0328965
280 -0.0185357 0.0282073
346 -0.0337392 0.0121722
367 0.00507139 -0.0231504
267 -0.0556918 0.0285049
147 0.00628891 -0.0146048
348 -0.0232701 -0.0318326
319 -0.0192645 0.0110775
383 -0.0305757 -0.0584547
274 -0.021613 0.0140339
375 -0.0163572 -0.0146335
331 0.0123907 0.0163018
251 0.0271829 -0.00171995
237 0.0465506 0.00361281
381 0.0253508 0.0447129
242 0.0239679 0.00367499
323 -0.0221087 0.0184723
13 -0.0620931 -0.0315432
250 0.0253351 -0.0296684
3 -0.00416511 -0.0255209
189 -0.023112 0.00716191
341 -0.0357772 0.00521511
327 0.0340996 0.0459261
272 -0.0446884 -0.0216527
248 0.0116766 0.0561014
247 0.0476095 0.0167802
386 -0.0039268 -0.0464243
190 0.0181773 0.0458925
289 0.0496012 -0.0281219
286 0.0453952 -0.0163997
257 -0.00633245 0.00815398
353 0.0530333 0.0225823
176 -0.0554546 0.0047662
12 -0.0147763 0.0304815
378 -0.00735659 -0.0537
210 -0.030972 -0.0576405
264 -0.0134879 0.0322812
321 0.00500463 0.000692462
332 -0.0134951 -0.00163242
114 -0.00191577 -0.0147525
108 0.00953445 0.024665
283 0.00333639 -0.0694596
287 -0.00688422 0.0159196
17 -0.0303237 0.0428815
376 -0.0308419 -0.0151136
344 0.00511379 -0.00885164
305 -0.0170507 -0.0371613
42 0.0382972 -0.0790556
33 0.0139945 0.0285184
306 -0.00591689 -0.028109
246 0.0147329 -0.0339065
187 0.0288254 -0.0173645
132 -0.0463557 -0.00365077
31 -0.0301989 -0.0341076
160 -0.0277747 0.0342072
293 -0.0356273 -0.0111622
249 0.01928 0.00528492
387 0.0248096 0.0116033
224 -0.0201145 -0.0807609
223 0.0177232 -0.00550294
93 0.032542 0.0120293
90 0.0367618 0.0420809
392 -0.0455799 0.00729851
96 -0.00927954 -0.00212892
222 0.00788691 0.0303615
41 -0.00366015 0.0202049
97 0.0282098 -0.0665009
62 0.0207831 -0.0167018
11 -0.0357761 -0.0107469
143 -0.0342058 -0.0543826
27 -0.0546707 0.0322185
71 0.00519868 -0.05094
361 0.0135559 -0.00396189
377 -0.0135438 0.0270021
336 0.015866 0.0262093
343 -0.00925508 0.0257134
99 -0.00213751 0.0196654
302 -0.00724439 0.00745712
330 -0.0404514 -0.00614804
362 0.00681146 -0.000778447
322 -0.00195393 0.0143307
339 0.0349953 0.0188608
268 -0.0150437 0.0257067
67 0.020169 0.00852191
351 0.0219926 0.0247164
55 0.00642891 -0.015025
29 0.0227517 0.00688722
39 0.00337752 0.00161636
389 -0.0132986 0.0203888
312 0.0306528 0.026198
295 -0.0361767 0.0338835
315 -0.0221081 0.0238946
