ITEM: TIMESTEP
14000000
ITEM: NUMBER OF ATOMS
400
ITEM: BOX BOUNDS pp pp pp
0.0000000000000000e+00 2.0000000000000000e+01
0.0000000000000000e+00 2.0000000000000000e+01
-5.0000000000000000e-01 5.0000000000000000e-01
ITEM: ATOMS id vx vy
400 0.0177913 0.0163599
110 0.0216043 0.0465605
392 -0.0962924 0.0368886
17 -0.0215293 0.0221234
357 -0.0118269 -0.0252225
77 0.0336274 -0.0173366
355 -0.00583543 -0.0462723
4 -0.0323748 -0.0309406
11 -0.0030019 0.0047247
264 0.0276316 0.0102026
326 0.00226808 -0.0383733
391 -0.0207361 -0.0728689
111 -0.029802 -0.00885864
134 0.0163754 0.0423518
232 0.0138785 -0.0190007
25 -0.0627332 -0.00170304
343 -0.019875 -0.0228349
315 0.0319496 -0.0617351
229 -0.0140915 0.0377183
320 -0.0279018 -0.0244034
127 0.0262914 0.032582
81 0.0353419 0.00869659
322 -0.016503 -0.0156101
67 -0.0402614 -0.02959
8 -0.00785227 -0.0396303
308 -0.0191124 -0.0226597
389 0.0336527 0.0169473
349 0.0472198 -0.0138121
19 0.0388988 -0.0116315
325 0.0809598 0.00416554
140 0.0127787 0.056428
388 0.0188884 -2.22926e-05
290 -0.0353487 0.0204499
29 0.0162079 -0.00251755
206 0.0268115 -0.0237077
295 0.00172804 -0.0155793
122 -0.0148142 -0.0525544
56 -0.0311833 -0.00339749
24 0.0171935 -0.053173
94 0.0376825 0.00128071
137 -0.00704334 -0.0151023
396 0.00205189 -0.0120195
101 -0.0469849 -0.0243224
117 -0.00609192 -0.0288079
390 -0.000410189 0.00382987
316 0.0161976 -0.0338399
312 0.0190706 0.0234793
370 -0.00352136 -0.025115
298 -0.0339257 -0.0227382
345 0.0299439 -0.0625275
339 -0.0451084 0.08267
337 0.0168479 0.0793349
6 -0.0416433 0.00957074
9 0.00187077 -0.0301556
72 0.00857283 0.066316
152 0.0368047 -0.0365818
54 -0.0392223 0.0256816
177 0.0186565 -0.020903
51 -0.0231681 -0.0511455
79 -0.0191485 -0.0304323
58 0.0151718 0.0389838
20 -0.00300611 0.0175056
57 0.041171 0.0178257
169 0.0368566 -0.00374894
363 -0.0168799 0.0110174
255 0.00367486 0.0350937
85 -0.0292307 0.00413146
145 -0.00996137 0.0138267
153 -0.00706989 0.0340019
65 0.0210855 -0.0110871
173 -0.0501218 -0.00656666
155 0.0649772 0.0301096
352 0.00214373 -0.0408603
82 0.0133663 0.0171585
83 -0.0312009 0.0191847
235 -0.0375769 -0.0190871
259 -0.0038517 -0.0347174
228 -0.0131976 -0.0433424
239 0.0510143 0.0172186
380 0.00717903 0.0141786
109 -0.0219844 -0.0218244
350 0.0369185 0.0365162
89 0.00880401 0.0540615
186 0.0314756 0.0222545
379 0.00929013 0.0134318
144 -0.0217823 0.0200384
219 0.029414 0.00290281
157 0.0232418 0.018937
181 -0.0142884 -0.00491659
43 0.0222813 -0.027584
87 -0.0144152 0.013701
106 -0.0137973 0.00382834
123 0.0206327 -0.0646325
68 0.0854357 0.0064718
30 -0.0168835 -0.0140242
208 0.0483487 0.0510116
74 -0.0216315 -0.0240052
202 0.0105228 -0.00462062
112 -0.00225263 -0.0432947
275 -0.0362364 -0.0172264
139 -0.00095222 -0.0390081
60 -0.0126119 -0.00271935
63 -0.0108957 -0.0454139
252 -0.0386541 0.0424053
221 -0.01624 0.0125222
98 0.0190469 -0.022124
291 0.0861326 0.00729224
36 0.0208881 -0.0225655
174 -0.0277067 0.0581402
218 0.000439807 -0.00759202
73 -0.0254201 -0.0191511
26 0.0566957 -0.016007
204 0.0629011 0.0253744
136 0.0107317 0.0147049
178 0.0156782 0.0179868
317 0.00262602 -0.0189958
215 -0.0151644 -0.0349006
80 -0.0238747 -0.0439186
217 0.0107747 0.027935
324 -0.0119134 -0.0938258
372 0.0247298 -0.0251594
271 0.0109669 0.0175443
195 -0.0331532 -0.0189585
38 -0.028729 0.0265312
154 -0.0221203 0.0605886
342 -0.00490583 0.0377056
102 -0.00805049 0.0147633
69 -0.0126315 0.0768014
303 0.0116492 0.0236528
124 0.0520813 -0.0216121
151 0.0190711 -0.0070608
197 -0.0406981 0.0441635
244 -0.0193851 0.0446433
121 -0.00916995 -0.0229645
328 -0.00851837 -0.0183193
256 -0.0157063 0.00569904
44 0.0674539 0.056106
66 -0.00280842 -0.00933173
288 0.0251957 -0.0704731
172 -0.0144615 -0.00503781
180 -0.0277223 0.00707889
115 0.00426512 0.0293821
76 -0.0323131 -0.0192053
78 -0.0461115 0.0245286
125 -0.0304333 -0.0117077
366 -0.0288636 0.00338457
231 0.0166367 -0.0542266
254 0.0357736 -0.0213801
119 0.00800019 0.024486
104 -0.0434264 -0.0076621
294 -0.00881957 0.0989424
278 -0.0208157 -0.0274748
171 0.0327328 -0.0182035
1 -0.0508218 -0.0417982
7 0.036959 0.0504756
163 -0.0226971 0.0388606
128 -0.0221518 -0.070116
120 0.0128714 -0.0135388
300 0.0381856 -0.0185088
70 -0.00597813 0.032029
233 0.0471525 0.00658197
193 -0.0584904 -0.0103379
385 0.0458036 -0.0298883
393 0.00204255 -0.0393639
45 -0.0206078 -0.00358915
118 0.00128061 0.070043
301 0.0269509 -0.0467197
162 0.0613486 0.00406093
14 -0.0184187 -0.0197195
296 0.00516881 0.0327034
75 -0.021399 -0.0551879
297 0.00738641 -0.0956712
148 -0.0140769 -0.0674688
161 -0.0203964 0.0117652
279 0.00185424 0.0405803
103 -0.00235202 0.0368487
358 0.0464005 -0.0324639
179 0.0492093 -0.0399475
141 -0.0165594 -0.0542759
270 0.0325144 0.0498158
107 -0.0125477 -0.0336539
216 0.038327 0.0296049
335 0.0027077 0.0121435
334 -0.032193 -0.00987551
318 0.0205243 -0.0627422
84 0.0256578 -0.0172399
164 -0.002177 0.0610002
22 -0.0151689 -0.0205622
241 -0.0347816 0.0141596
182 0.0074536 0.0157543
175 -0.0414258 0.0332729
184 -0.0057285 0.0160983
374 0.00262774 -0.00333601
356 -0.0667351 0.0135476
50 0.0168942 0.0430168
394 0.00467099 0.0133493
156 0.0541226 -0.038417
188 -0.0111078 0.00344053
52 0.00941265 -0.0292656
253 0.0303291 -0.0408046
213 -0.0436046 0.000957062
159 0.0178275 0.0226993
292 0.0226851 -0.0279825
313 0.0155454 -0.00187404
209 0.0376781 -0.00667668
281 0.0254521 0.00481206
135 -0.00924084 0.00369747
329 0.0318449 0.00112931
304 -0.0355059 -0.0664688
240 0.0300154 0.022018
183 -0.0115202 -0.0255487
48 0.029456 0.0179762
282 -0.0367805 -0.00495046
285 0.079649 0.00281852
266 0.0433806 -0.0231069
196 0.0216546 0.0447524
360 -0.00195735 -0.0185855
158 0.00858535 -0.0394097
198 -0.0268454 0.00398337
185 0.0264857 -0.0349046
34 0.0254539 -0.020711
113 0.00486211 0.00899171
263 -0.00894516 0.00693478
32 0.00221683 -0.0205615
191 0.0072994 0.0129415
201 -0.0210797 -0.035763
192 -0.00277227 0.0321077
238 -0.0615333 0.0305312
95 0.0170064 0.00990045
59 0.0655008 0.0288516
105 0.051336 0.0148772
199 -0.0498405 -0.083166
166 -0.0438182 -0.0647426
5 -0.0217722 -0.021229
49 -0.0218361 -0.0188799
310 -0.0033166 0.0113163
359 0.00081765 0.0177912
131 -0.038183 0.0207711
314 -0.00655845 -0.0123325
194 -0.0479631 -0.0140524
269 0.0332569 -0.0270524
212 0.00159626 -0.0116832
100 -0.0384612 0.0108601
170 -0.0308709 -0.000816819
211 -0.0276965 -0.0118253
146 0.00958658 -0.00570179
88 -0.0418594 -0.000744982
277 0.048314 0.0216209
214 0.000150829 -0.0152297
16 -0.0137782 0.00120917
226 0.0436879 0.0929893
205 0.0181424 0.0110522
23 0.0604602 -0.0510412
299 0.0301117 0.00617578
142 0.00379823 -0.0345237
369 -0.0499551 0.00632461
364 -0.00435088 0.0133044
92 0.0285718 0.00894716
15 0.0103799 0.0281173
258 0.0104703 -0.00294254
126 -0.0112986 0.041401
384 0.0243452 -0.0172983
346 0.0120359 0.00918527
243 -0.0233029 0.0228836
28 0.00977886 0.00274564
236 0.0112745 0.0133845
168 -0.00517658 -0.0144607
46 0.0618659 -0.00442834
307 -0.00747333 -0.00652197
284 -0.00260054 0.0187233
220 0.0144631 0.00407345
133 0.0613396 0.00630249
234 -0.022697 -0.0224117
347 0.0595357 -0.0381597
47 -0.0184739 -0.0392384
262 0.00863281 -0.00521315
371 -0.0140973 0.00458733
18 -0.0379861 0.0737234
373 -0.0298327 0.0311651
338 -0.0345395 -0.0259751
150 0.0133506 0.00306742
274 0.0416657 0.0364821
165 0.0200615 -0.00420268
398 0.042503 -0.00926463
129 0.0341418 -0.00610482
261 0.0419495 -0.0251171
276 0.0534304 -0.0139753
365 0.0266971 0.039218
367 0.053155 -0.0247636
225 0.0680679 0.0389523
386 0.017394 0.0209263
383 -0.019855 -0.0219466
21 0.00695893 -0.0420387
149 0.0168605 -0.0472985
280 0.0578164 0.0131301
309 0.0279255 -0.00135474
340 -0.0355502 -0.0357994
250 -0.015122 -0.0758433
245 0.0419092 -0.01149
3 -0.0281874 -0.040403
354 0.0468142 -0.0556812
260 0.0235674 0.0121946
267 -0.0250364 -0.0219252
114 0.0259638 -0.106046
147 0.0142081 -0.0059075
311 0.0275767 0.0102302
200 0.00884932 0.0347829
116 -0.0236304 -0.0135328
160 -0.0129556 -0.0639252
203 -0.0194223 0.0263923
265 -0.0281818 -0.00668883
207 0.00785278 0.0371527
227 -0.00867566 -0.0407383
230 0.0498177 0.0155896
108 -0.00697121 0.0154402
273 -0.035982 0.0102328
348 -0.00421825 -0.0258408
246 -0.0215761 -0.0260208
341 0.0405628 0.0147496
189 -0.018525 0.063664
293 -0.034849 0.0178228
251 -0.0454616 -0.00143437
381 0.0116224 0.00451986
242 0.0284055 -0.0627638
13 -0.0144707 -0.0300974
333 0.0297161 -0.0331921
187 0.00561872 0.0198553
286 -0.0360728 -0.0300689
61 0.0450562 0.0379319
176 -0.0309111 0.040059
331 0.0289203 -0.00870544
397 -0.0328227 0.0221546
143 -0.031098 0.0174114
332 0.00399629 0.000923657
361 0.0431195 0.0430881
319 0.0233204 -0.01557
375 -0.0378476 0.0063121
41 -0.0110508 -0.0310997
210 -0.0103492 -0.0298551
237 -0.0324855 0.0288971
321 0.00485784 0.0250537
330 0.0351963 0.0259623
344 -0.0379232 -0.013035
167 0.0286127 0.00730994
42 -0.0237324 -0.0115076
93 -0.00225562 -0.0459477
289 -0.0388389 -0.0161273
31 -0.0210823 -0.00964651
399 0.00283457 0.0350682
96 -0.00283729 -0.0200326
222 0.00207245 0.0137951
53 0.0252505 0.0201686
12 -0.0217186 0.023034
327 -0.0288782 -0.0294671
387 0.00905998 -0.00449617
272 0.0140837 0.00678607
323 0.0302416 -0.0260102
248 0.0191543 0.00772063
91 0.0937199 -0.023044
306 0.0186643 -0.0342882
90 -9.94474e-05 -0.0230157
283 -0.077548 0.000479939
190 0.00528239 0.0192928
257 0.000132911 -0.00472482
138 -0.0326004 -0.0571431
353 -0.0149106 -0.000788687
249 0.0366453 0.00451878
362 -0.0159082 -0.00878265
224 -0.0106248 0.0271625
27 0.0409989 -0.0304744
39 0.0208946 -0.00538023
287 0.00027851 0.0117953
376 -0.00382062 0.0269981
35 -0.0888805 -0.0273977
302 -0.00265899 -0.0288595
378 0.0373093 -0.0143504
97 0.0101858 -0.00675926
64 -0.0161887 -0.0234269
268 -0.0374772 -0.0376266
223 -0.0224421 -0.0489039
305 0.028661 0.0127782
33 -0.0301937 0.0119597
351 0.0325578 -0.0135826
71 -0.0540309 0.0373447
247 -0.0267021 0.0513381
99 -0.0131399 0.0124298
130 -0.0552181 -0.0198237
395 0.00858215 0.006124
86 0.0335915 0.0160062
382 0.00863647 0.00360556
62 -0.0147834 -0.0321384
2 -0.0207623 -0.0158561
10 -0.0196493 -0.000476512
55 -0.00538007 0.00777368
377 0.0207785 -0.0242312
132 0.057864 -0.00298468
336 0.00403613 -0.0275854
40 0.0192917 0.0304084
37 -0.0178799 -0.0763234
368 -0.0415851 0.0347922
