ITEM: TIMESTEP
15000000
ITEM: NUMBER OF ATOMS
400
ITEM: BOX BOUNDS pp pp pp
0.0000000000000000e+00 2.0000000000000000e+01
0.0000000000000000e+00 2.0000000000000000e+01
-5.0000000000000000e-01 5.0000000000000000e-01
ITEM: ATOMS id vx vy
86 0.0447459 0.0192024
224 0.0197908 0.0261817
10 0.0245122 0.0037323
134 0.0153923 0.0201189
206 0.032586 0.00684883
19 0.020669 -0.0131587
320 -0.000759403 0.00704233
77 0.00390254 0.00891229
127 0.0541679 -0.0136577
396 0.0466767 -0.0385044
391 0.0501066 -0.00365324
9 0.0499835 0.0305852
232 0.0327241 -0.0771186
343 -0.0116461 -0.00784607
315 -0.00740108 -0.0387097
370 0.0298209 0.0174015
357 -0.0117555 0.0794568
368 0.0459685 0.0567915
395 -0.026171 -0.0341275
6 -0.0333248 -0.0161536
140 -0.0146941 -0.00903283
11 0.0668695 0.0639033
308 0.00579167 -0.00106374
349 0.00783299 -0.000452323
94 0.0107391 -0.0446123
345 -0.035995 -0.00274854
139 0.026177 -0.0125271
81 0.0184487 -0.00590765
67 0.0785065 0.0131405
117 0.0340947 0.0245192
98 0.0428412 0.044506
392 0.0106366 -0.0062519
152 -0.019753 0.0396216
316 -0.0179374 -0.012858
177 0.0364779 0.000587409
56 -0.0128938 0.00823839
259 0.027376 -0.0428409
57 -0.0388257 -0.00899552
55 -0.0174759 -0.00203034
173 0.0319691 -0.0228063
30 0.0248931 -0.0282121
122 0.00161547 0.0178367
58 0.00561242 -0.00998404
239 -0.00183373 0.00359497
85 -0.0686963 -0.000356276
264 0.0259092 -0.0243278
290 -0.0322964 0.00714855
389 0.0364969 0.0255222
54 -0.0055354 -0.0294835
312 0.0204106 -0.0067583
295 0.0380387 0.0294053
80 -0.00904485 0.0313007
83 -0.021721 0.00381733
229 0.0286909 0.00848173
24 0.0382036 0.0296551
157 -0.00927861 -0.0755765
298 -0.0247564 0.0131006
380 -0.0144777 0.0151799
29 0.00384658 0.0468481
145 -0.0144413 -0.0329492
82 0.0108536 -0.0239935
51 -0.0206542 0.00452608
79 0.0351446 0.0507559
137 -0.0172082 0.0439354
235 -0.00271191 -0.0166653
43 -0.00302564 -0.0116303
60 -0.0433068 -0.0524816
255 -0.0352063 0.0498809
109 0.00039995 0.019552
89 0.00248002 -0.0228658
111 -0.029727 0.0488131
352 -0.0194829 -0.0144166
390 0.0228988 0.0276198
155 -0.0420476 0.00397917
219 0.0328394 0.0252283
275 0.0379517 -0.0064948
339 -0.0377999 0.00759586
328 -0.00377654 -0.0209987
324 0.00153314 -0.0720437
363 -0.0141768 0.0285257
101 0.021865 0.0399051
337 0.0263072 -0.0148774
350 0.0092735 -0.0851778
123 -0.0602728 -0.0191748
72 -0.00395359 0.0279114
151 0.00164643 0.0235517
186 -0.011786 -0.0184566
74 0.00270206 0.0126587
202 -0.0498195 -0.0276836
112 -0.0265771 0.0199005
181 -0.00647068 -0.00717591
63 0.0343552 0.0264328
288 -0.0222789 0.0299704
291 0.023494 0.0761168
26 -0.00101954 0.0165507
153 0.000423947 0.0182689
208 -0.0041218 -0.0686098
215 -0.0702035 -0.0124192
379 0.0446649 0.0526706
136 0.00459683 -0.0570706
228 -0.0341849 0.00822618
358 -0.00234523 -0.0247066
254 -0.0344116 0.0139731
221 -0.0220904 0.0182145
66 -0.0303941 0.00898506
195 0.0128247 0.0136088
68 -0.00831339 -0.0653075
76 0.00319638 -0.0124166
197 0.0146622 0.00841475
178 0.00170994 0.00758957
218 0.0742078 0.00365929
20 -0.0299703 0.0103494
125 0.00198193 0.00337596
73 0.0323024 0.0220068
388 0.0513285 -0.0426918
69 -0.0137712 0.0444618
164 0.0109616 -0.0309805
271 -0.043498 -0.0053277
115 0.0620761 0.00282887
171 -0.0206318 -0.0182664
144 -0.0148194 -0.0542747
174 -0.0309709 -0.018541
121 -0.0643998 -0.00529361
256 -0.0321712 0.0511143
252 -0.0423158 0.0321553
106 -0.00995047 0.0447848
44 0.0486115 -0.0229769
303 -0.0328019 -0.000553523
65 0.020465 -0.00656951
70 -0.0347893 0.0206453
317 -0.00827974 -0.050108
36 -0.0204602 -0.0641458
244 -0.0167899 0.0280479
169 -0.0227064 0.0430374
217 -0.0666551 0.00790153
231 -0.0141384 -0.00546003
87 -0.0286728 0.0497656
278 -0.0166224 0.000916936
180 -0.0237551 0.00089042
124 -0.0172395 -0.00484708
7 0.0176691 0.033326
279 0.0306519 0.0181416
366 -0.0301709 -0.0106771
393 0.0265754 -0.0113544
102 0.0285921 0.0437468
372 -0.0331861 0.0651487
118 0.052879 0.0105774
120 -0.0117224 0.00479753
1 -0.0499637 -0.0171187
297 -0.0262287 0.00567298
78 0.00338374 -0.0236092
342 -0.0395239 0.016966
394 -0.0558821 -0.0332087
385 -0.0235067 0.00688863
45 -0.000586884 0.0342504
240 -0.0736369 -0.0174207
128 -0.0398125 0.0614724
119 0.0319267 0.0203777
294 0.0145863 -0.00838267
75 -0.00128285 -0.0221098
300 0.0500105 0.0271778
193 -0.0526834 0.030719
163 -0.0245095 -0.000386831
158 0.0369755 -0.0153016
84 -0.0414513 -0.0208457
301 -0.0336876 0.010779
52 0.0353061 -0.00502138
172 -0.0220865 0.0175321
175 0.0351336 -0.0237602
182 0.0031022 0.0247768
204 -0.0109387 0.0339163
148 0.0322829 -0.00161883
335 0.0436957 -0.0180494
38 0.0301265 0.0506343
304 0.00160221 -0.0212865
179 -0.0363966 0.0430636
104 0.03442 0.0020648
22 0.0337086 0.0245624
34 -0.00935637 -0.0197559
107 0.0103284 -0.0127917
162 -0.00603699 -0.0158488
14 -0.00396505 0.00471882
313 -0.0236208 -0.015054
233 0.0534396 -0.00842249
50 -0.0615214 0.043816
154 -0.0300548 -0.0445134
103 -0.00450703 0.0438326
170 -0.0279795 -0.0130857
188 0.00245814 -0.0268079
241 0.0273048 0.00657742
213 0.00453953 -0.0570015
16 0.0311783 -0.0628326
159 -0.00962077 -0.0105927
296 0.0316562 -0.0256922
161 0.0521465 0.0240663
196 -0.0205643 -0.0139602
334 0.0521395 0.015605
141 0.00678341 0.0489718
183 0.00880255 -0.0186987
5 -0.00850043 0.0122575
216 0.0113644 0.0666751
191 0.0242934 0.0337418
285 0.0190295 -0.0158577
135 -0.0339366 -0.0288297
95 0.0050235 -0.0444062
270 0.0291017 0.0096796
146 -0.00783542 0.0196085
88 -0.00582581 -0.0434395
18 0.014168 -0.0554244
263 0.0260333 -0.0203536
184 0.00647559 -0.00730562
374 0.0397886 0.0202103
209 0.0265883 0.0406539
238 -0.0465645 -0.00525657
198 -0.00254641 0.0383178
185 0.0258472 0.00898663
199 -0.0133749 0.0449959
211 0.0481904 0.0100087
49 0.0222574 -0.0281321
214 0.0234377 -0.0389345
15 0.0808684 0.0495304
356 0.0615706 0.0359237
194 0.0199014 0.0230519
281 0.0406033 -0.0144463
156 0.0116532 0.0447772
142 -0.0585739 0.0220944
166 0.0117214 0.00597761
277 -0.0246679 0.00359901
310 0.0354982 0.0184989
48 -0.0399672 0.0160399
212 -0.0341277 -0.0465056
329 -0.00298796 0.0135241
234 -0.0277969 -0.00451012
100 -0.00383162 0.0276185
318 0.00233062 0.0968627
346 -0.0213351 -0.00888043
364 0.0204761 -0.033026
253 -0.0195127 -0.00490672
266 0.022064 -0.0325887
201 0.0482782 0.0109927
269 -0.00237773 0.0404127
21 0.00563565 0.0196385
360 -0.0300228 -0.0147226
205 0.027143 0.0110946
23 -0.0260053 -0.0162122
105 0.0395243 0.0236239
59 -0.0219333 -0.0059356
369 0.017559 0.0037862
262 -0.0216185 -0.00194084
113 -0.00638782 -0.0181697
168 -0.0580461 -0.0120885
338 -0.0292197 0.0113914
314 0.000178879 0.0606759
226 -0.01596 0.0430562
258 0.019873 0.00642973
133 -0.00793087 0.0132888
384 0.0642608 -0.00767403
365 -0.00370343 -0.00480898
236 -0.0200676 0.00469475
354 0.0145941 -0.0273672
126 -0.0106463 -0.0401855
260 0.00238861 0.0310665
347 0.00868602 -0.0344107
276 0.0298142 0.00423947
371 -0.0653226 -0.0191205
147 -0.0471082 -0.0459443
367 0.00127711 -0.000420469
340 0.0299727 -0.046507
32 0.0024574 -0.00477157
282 -0.0163099 -0.023866
292 0.0190162 0.00769314
116 -0.0139915 -0.00686685
160 -0.00846782 -0.0254542
149 0.019068 0.0261085
129 -0.00159728 -0.0301262
47 -0.0253115 0.00396946
309 -0.0548493 0.000269346
225 0.0278434 -0.0165255
28 0.0106923 -0.0182654
386 0.033818 0.0297269
92 -0.0069926 0.0584682
383 0.00647736 0.00634887
359 -0.0236389 0.0212528
274 0.0616879 0.0283149
381 -0.0558342 -0.0240883
267 -0.0333426 -0.0157115
243 -0.0225791 0.0226521
114 0.00739223 -0.0163607
46 0.037791 0.0329435
131 0.0145331 -0.00344898
311 0.0750496 0.00810099
284 0.0576738 0.0510688
192 0.0442716 0.015947
220 -0.000348192 0.0341133
207 -0.0209704 -0.0482441
280 0.0499269 -0.00556471
332 -0.0351625 -0.0479569
248 0.0190873 -0.029561
250 -0.021314 0.00704831
230 0.00383582 -0.00862706
246 0.0104343 0.00483268
150 0.0170739 0.0245466
341 -0.0227273 -0.0331873
245 0.0205851 0.0441806
3 0.0453215 0.0153832
307 0.0174571 0.0232419
200 -0.0228602 0.0343055
251 -0.00554707 -0.0450331
203 -0.0300282 -0.0308242
265 -0.0255809 -0.0166594
398 -0.011059 -0.0132465
299 0.0301895 0.102797
13 0.0460033 -0.0547423
42 0.0230984 -0.0313662
108 0.0190179 -0.0348573
373 0.0235894 -0.0435453
348 0.00793167 0.0156532
293 -0.0276478 0.00205344
176 -0.0111548 -0.0111736
165 -0.0326707 -0.0318438
237 0.000756705 -0.0527175
321 -0.0396575 -0.0370196
261 -0.0266479 -0.0457596
227 -0.0698863 0.0418196
333 -0.056722 -0.0181701
273 -0.00663167 0.0141233
187 0.0293468 0.0186058
189 -0.0211538 -0.0234534
61 0.0158651 -0.0355115
138 0.0188689 -0.0282571
397 0.0326006 0.0219668
272 0.0423313 0.0154584
2 -0.0322563 -0.0535734
242 0.00254542 0.00788469
143 0.0148285 0.0221303
91 0.0139591 -0.0070536
306 -0.0451832 -0.0530361
351 -0.0379597 -0.0390033
90 0.0160476 -0.00526476
286 0.0313002 -0.0119345
376 0.0134215 -0.0027483
399 -0.0207495 0.0201749
41 0.00644438 -0.0144247
331 0.0120826 0.0397402
223 0.000202978 0.0461127
323 0.0467681 0.0323773
305 -0.0171552 -0.0198756
289 -0.000974775 0.026178
287 0.0227129 -0.0486878
319 -0.0493959 0.0617409
257 -0.00956185 -0.00719154
375 -0.0468034 -0.00255289
302 -0.0153833 0.0381022
249 0.0161082 -0.0596099
344 0.0113434 0.010649
167 0.0194428 0.0675416
377 0.00864473 -0.0271017
31 0.0347977 0.057194
132 -0.00940426 -0.0479051
12 0.0848512 -0.0475119
353 -0.0122468 0.0238638
362 0.00641268 -0.0270421
64 0.0208496 -0.0264604
268 -0.0210838 -0.0173339
330 0.0538567 -0.00565835
62 0.0537711 0.0472124
27 0.0284922 0.0319156
283 -0.00347434 0.00774432
17 0.0308904 0.00320746
222 -0.00810465 0.013303
96 -0.00846033 0.0215335
355 -0.000603264 -0.0328791
382 -0.0178801 -0.0271527
97 -0.0178926 -0.000605346
8 0.0108503 -0.0448452
247 0.033725 -0.0331974
71 -0.0258841 0.00463212
400 0.00930592 -0.0432165
361 -0.0374164 0.00141182
190 -0.0255108 0.0158221
99 0.0244263 -0.0101343
25 0.029931 -0.0790603
37 0.0267008 0.0206991
327 -0.0571876 0.00391142
210 0.0221294 -0.0163756
378 -0.0193257 -0.012743
387 0.0303657 0.00704601
4 -0.00607848 -0.00806873
322 0.00983172 0.0193611
326 -0.00397627 2.6853e-05
33 -0.034553 -0.0237718
110 -0.0288878 -0.0223113
93 0.00767238 0.0259469
39 -0.0394518 -0.0490688
130 -0.00201302 -0.0324357
336 0.00145902 -0.0502658
325 0.00815068 -0.0118199
40 -0.0188513 0.0112041
35 -0.0241077 0.00377596
53 0.00497495 -0.0210824
