ITEM: TIMESTEP
16000000
ITEM: NUMBER OF ATOMS
400
ITEM: BOX BOUNDS pp pp pp
0.0000000000000000e+00 2.0000000000000000e+01
0.0000000000000000e+00 2.0000000000000000e+01
-5.0000000000000000e-01 5.0000000000000000e-01
ITEM: ATOMS id vx vy
322 0.0354748 0.00232054
326 0.0197274 -0.0736778
33 0.0039964 0.0268168
232 -0.0122413 0.0338783
389 -0.045976 0.00246483
177 0.0875705 0.02457
37 -0.0317772 -0.00703913
259 -0.077307 -0.0422016
239 0.0276133 0.0229173
380 -0.0137919 -0.0422063
4 -0.0108114 -0.0546296
268 0.0400594 -0.0630645
10 0.046766 -0.012823
391 0.0178603 0.0218866
392 0.0175805 -0.0562964
82 0.0195917 -0.0589054
370 -0.0229573 -0.0348849
53 -0.0819332 0.0137047
357 0.00684313 0.0429077
77 -0.0243428 0.00993827
127 -0.0219918 -0.00822756
8 0.040285 -0.0136406
316 -0.0795078 0.00458167
349 0.00567291 -0.0155542
30 -8.42716e-05 -0.0170093
368 0.0184754 -0.0781585
24 -0.00636545 -0.0225838
157 -0.0149934 -0.0414262
345 0.0249761 -0.0156644
57 -0.00614564 -0.02675
224 -0.0114083 0.0169105
110 -0.00349225 -0.02107
9 0.0421301 0.000181941
134 -0.0434618 0.0368829
98 0.039519 -0.00103117
93 0.00377171 0.0474374
40 0.0107799 0.0289478
56 -0.0255207 0.00664269
85 0.0432629 -0.00549479
350 0.00812414 -0.0281453
11 0.00978903 0.017171
400 0.0224894 -0.0361286
308 -0.0236795 0.0104737
312 -0.0161313 0.0374594
122 -0.00272207 -0.027375
94 0.010036 0.0385826
43 -0.0551399 -0.0103074
63 0.0282524 0.0326101
396 0.0226303 0.0422533
264 -0.0204193 0.0152337
117 -0.0583688 0.038228
55 0.022314 0.0131551
145 -0.0280129 0.0219095
83 0.00333265 -0.0113055
395 -0.062968 -0.00962231
298 0.0103515 0.0412343
109 -0.00216297 0.0188355
337 -0.0824847 -0.0138559
89 -0.00508087 -0.000855944
390 -0.00387738 -0.0142849
74 -0.00462863 -0.0637579
51 0.0128586 -0.0216721
295 -0.0121423 -0.0387713
235 0.0275476 -0.0411413
125 -0.0219748 0.0156439
324 0.0471876 0.0283745
140 0.0407723 0.0482959
67 -6.32279e-05 0.0350717
186 -0.0319767 -0.0353477
303 -0.0164127 0.0276316
288 -0.0309537 0.0347382
72 -0.0305682 0.0053299
352 0.00138535 0.00312345
54 -0.0300449 -0.00682822
379 0.00497859 0.00853202
58 -0.0254315 0.0302725
36 0.0281073 -0.0378695
229 0.0271481 0.0373303
60 0.0133237 -0.0254734
328 0.0570763 0.0051303
29 0.00281034 -0.0340736
151 0.0173825 -0.0101873
197 -0.0397484 -0.00161353
155 0.0188021 -0.0178815
79 0.000601826 0.0243679
144 -0.00797901 -0.00365733
137 -0.0118544 -0.0123506
219 0.018023 0.0204939
181 0.00418981 0.0524536
256 -0.000186023 -0.023096
255 -0.0216024 0.059999
101 -0.0337385 0.0345425
123 -0.0427599 -0.020067
65 0.0014659 0.0298484
26 0.00899404 -0.00090757
208 -0.0322089 0.0111789
244 -0.00573357 -0.0241172
80 0.0281792 -0.0270869
20 -0.0166603 0.0328597
136 0.016104 0.0504025
363 0.00434241 -0.0585968
290 0.00931268 -0.00485792
271 0.0266682 0.0385564
291 -0.0151888 -0.0351507
76 -0.0132951 0.0719155
215 0.0503321 0.0427941
78 -0.0118567 0.000100058
275 0.0282032 0.0064952
339 -0.0255183 0.021468
254 0.00701636 -0.00671929
388 0.0208416 -0.00644596
44 0.00338302 -0.0188181
115 0.0025631 -0.0170804
195 0.00448585 0.0270988
68 0.00685547 -0.0180166
70 0.012769 -0.00326453
317 -0.00561271 -0.0542519
202 -0.03043 0.0158741
174 0.0625605 -0.00837217
217 0.00609376 -0.000934078
252 0.00613261 -0.0271799
106 0.0052813 -0.00287627
164 -0.0300953 -0.0151509
171 -0.0715981 -0.0231362
124 0.0226509 0.00315239
297 0.0545096 -0.00388107
342 0.0606896 -0.0123084
121 -0.0318718 0.00240495
218 -0.00962304 0.00996054
178 -0.00611711 -0.00311177
393 -0.0377712 -0.00421784
240 0.0392951 0.00780079
69 -0.0459268 0.00656188
111 -0.0487063 0.0100893
278 -0.00216023 -0.00972744
118 0.0483878 -0.0656063
180 -0.00488796 0.0185171
120 0.0297492 -0.00248798
172 0.0396528 -0.0473683
153 0.00490209 0.047292
75 0.043903 -0.0125791
366 -0.0185951 0.03491
221 -0.0086079 0.0164524
102 0.0317998 -0.0337492
34 -0.0342181 0.00613271
52 0.0164208 -0.0259603
22 0.0620386 -0.024977
193 -0.0141913 0.0800266
204 -0.00175281 0.0350299
394 0.00923905 0.015291
233 0.0517891 -0.0423533
304 -0.00115821 0.0234927
358 -0.0245181 0.00352496
170 0.0438735 0.0157827
301 0.0559041 0.0119585
294 0.0500677 0.0349852
313 0.022699 0.00866101
385 0.0308653 -0.0258619
228 0.0456219 0.0429137
128 0.0542796 -0.0154813
104 0.000200255 -0.0416303
188 0.0380558 -0.0147649
87 0.0519193 0.0312038
107 0.0249895 0.0251123
1 -0.0108046 0.0182934
159 0.0423035 0.0323386
182 -0.0114619 -0.0119469
7 -0.0157969 -0.00785221
148 0.0214442 -0.021154
112 -0.0404556 0.00103172
135 -0.000629227 0.0290525
169 -0.0163018 0.0137102
372 -0.0336991 -0.0333309
231 0.0216165 0.0193373
146 -0.0341149 -0.00470478
364 -0.0245403 -0.0522305
241 0.0135091 0.0792282
66 0.0676544 0.0778884
175 -0.0327823 0.058223
279 -0.075998 -0.0513131
154 0.00862404 0.0704517
73 0.0148675 0.00830024
103 0.00228482 0.00408595
213 -0.00264316 8.97897e-05
119 -0.0290026 -0.0637259
296 0.0317594 -0.000685449
163 -0.0379488 -0.00652861
161 0.0117501 0.0301408
95 0.0022963 -0.0512842
334 -0.0609256 0.00727611
234 0.0060065 -0.0175711
183 -0.0282637 -0.0101673
141 -0.0217629 -0.0217134
88 0.0155778 0.0199342
168 -0.00330218 -0.0621798
211 0.0242945 -0.030222
16 -0.0422009 0.02641
285 -0.0165068 0.0468837
335 -0.000488796 0.0212055
266 -0.0209811 0.0069097
356 0.0200914 0.03294
209 -0.0447161 0.0310912
45 -0.0239399 -0.00116879
84 -0.0155225 0.0410173
113 0.0252032 -0.0434661
262 0.0512663 -0.00248855
49 -0.0215556 -0.0366163
300 -0.00158248 -0.00423899
191 -0.020506 -0.0291054
212 -0.0144403 -0.00704263
198 -0.0418052 0.0314621
158 -0.0339877 0.0618915
100 -0.0463439 -0.00277881
179 -0.000301414 0.0327838
270 -0.00478536 -0.0162567
384 -0.0172197 -0.0205885
18 -0.0200543 0.0309585
5 0.0223334 -0.0152775
162 -0.0394463 0.0499684
263 0.0226373 0.0153898
48 -0.0105642 -0.0448923
184 -0.00510189 -0.00138849
196 -0.00376609 0.0138959
281 -0.0017769 -0.0029475
238 0.00183079 -0.0206986
318 0.0236697 0.00136964
147 -0.00881237 0.0332387
371 0.01274 -0.0528569
340 0.048283 0.0177464
14 0.0246124 0.0541147
216 0.0278192 0.0119824
156 -0.0388562 0.0158691
38 -0.0052278 -0.0411111
360 -0.00617725 0.0192028
329 0.0125642 -0.0450567
347 0.00245022 -0.00100731
369 -0.0266268 0.0124996
114 -0.00177284 -0.00409175
214 0.00541367 -0.00534866
310 -0.00403612 0.0177164
292 0.0141556 -0.0420933
131 -0.0135412 -0.00902089
50 0.0207858 0.0102812
116 0.031425 -0.0125124
374 0.00674516 -0.0184529
142 -0.0246408 -0.00151941
346 -0.0213429 0.0272578
185 -0.0278728 0.0694978
47 -0.015365 -0.0482428
199 0.017323 -0.0113058
314 -0.0816101 0.0308373
274 -0.0269651 -0.0936338
200 0.03515 -0.0383696
194 -0.0819412 0.0321925
21 -0.0499949 0.0422455
192 -0.0609374 -0.030886
133 -0.0702233 -0.0434714
126 -0.0191607 -0.00644476
23 -0.0198644 0.0454753
105 -0.0299634 0.0311129
243 -0.0209228 0.00726731
332 -0.0159282 0.0353942
277 0.0101554 0.00778541
253 0.0373905 -0.0317727
28 0.00273267 -0.0272457
386 0.0325179 -0.00979928
359 -0.0043222 -0.0272693
149 -0.0155006 -0.0191396
260 0.00758821 -0.0315259
59 -0.001104 0.0750295
166 -0.0470487 -0.028221
351 -0.0498603 -0.0291027
32 -0.00150979 0.0580168
338 -0.014214 -0.0611652
383 0.00174503 0.00601473
245 0.0414205 -0.0262409
226 0.0251643 -0.0584299
15 0.0391692 0.0195399
205 -0.066924 -0.0201137
258 -0.0243383 -0.0333356
354 0.0312283 0.00561426
227 -0.0282828 -0.05457
236 0.00607237 -0.00887672
225 -0.0177004 0.0101101
367 -0.0211591 0.0267122
230 -0.0169262 0.0254871
92 0.0120261 -0.0488915
282 0.0136853 0.0242248
220 -0.00864325 0.0206917
207 -0.0409824 -0.0202669
381 0.00502347 0.026369
276 -0.0109418 -0.0303237
309 -0.0370303 0.00226916
143 -0.0187027 -0.0267113
365 -0.0101805 0.00229947
305 0.0478556 0.000257674
250 -0.0147201 0.0160304
42 0.0129122 -0.00927355
61 -0.00943881 -0.0297458
46 -0.0214941 -0.026176
201 0.00475399 0.0109745
311 -0.0306841 0.0114896
269 -0.030917 0.0274664
280 -0.0103157 0.0174793
261 -0.0196369 0.0105535
306 0.0165397 0.0134063
373 -0.0458751 -0.028904
13 0.0296541 0.0678687
187 -0.00225371 0.0174842
246 0.0210216 0.0404987
189 0.0688516 0.00331839
237 0.0238705 0.0347383
321 -0.01364 0.0362127
398 0.00420467 0.00695794
129 0.0130948 0.0148723
267 -0.00497846 -0.039264
323 0.0335065 -0.0432023
91 -0.0214311 -0.0260861
150 0.0239676 0.0485527
307 0.00270743 0.0402994
293 0.0121501 -0.0336274
160 0.0219759 -0.0411435
41 0.0249931 -0.0167551
203 0.0230349 0.0552292
12 0.00602383 0.011096
397 -0.00673869 -0.0291928
272 0.018756 0.0174171
71 -0.0106096 0.0230452
27 -0.0822986 -0.0189434
251 -0.0406285 -0.0340846
3 0.0329652 -0.0259686
165 -0.0479646 -0.0269299
265 -0.0405922 -0.00916548
249 -0.0499535 -0.00655311
299 0.0230119 0.0295251
97 0.00248039 -0.00202855
2 0.0252519 -0.00462898
283 -0.0386775 -0.00117759
248 -0.0219201 0.0220089
108 0.0102726 -0.0107085
376 -0.0197692 0.00164613
341 -0.0380388 -0.0386446
286 -0.0305747 0.0668239
257 -0.01705 -0.00732696
399 -0.0367797 -0.00713773
176 0.00258347 0.0720193
353 -0.0275407 0.034046
344 0.0141375 0.0389185
167 -0.0598552 0.0057688
90 -0.0329829 0.00988357
333 -0.00304094 0.0401378
348 -0.0116007 0.00475572
130 -0.00289088 -0.00450174
132 -0.0392653 -0.0413996
138 -0.0276193 0.00554728
336 -0.00438931 -0.00409109
284 0.0202061 0.00583635
387 0.04059 -0.053773
331 0.00488 0.0478821
330 0.0473839 -0.0163437
62 -0.0278539 -0.0350049
287 -0.0525682 0.00133787
319 -0.0654166 0.0297026
17 -0.0156309 -0.0334585
315 0.00834387 -0.0138553
173 -0.00292028 0.0083515
222 -0.000275147 0.0209536
302 0.00682776 0.0242947
327 -0.0331308 -0.0352275
355 -0.00552236 0.0381303
242 0.0175274 -0.00236661
273 0.0177593 -0.0233861
31 0.0087851 0.0254986
206 -0.00922587 -0.0220349
378 -0.0229493 -0.0209422
362 -0.0365126 0.0784755
382 0.0234877 -0.0482617
64 -0.0481158 0.0230974
223 -0.0226265 0.0406189
247 -0.0363311 -0.0319713
377 -0.00637888 -0.0244687
39 -0.0355325 0.0576127
99 -0.0409111 0.0652746
152 0.00322009 -0.0534531
375 -0.0427169 -0.0204462
19 0.0458839 0.0128563
210 -0.00765338 0.0345431
86 0.0181032 -0.00187475
6 -0.0147576 -0.0377894
81 0.068773 -0.0380504
289 -0.0367248 0.044853
361 -0.0558689 0.0259393
190 -0.0589207 -0.00198188
343 0.0191324 0.0277876
25 -0.0326655 0.0165619
325 0.0369304 0.00695889
96 0.0273241 0.00630684
320 0.0232114 0.00780782
35 0.0343374 -0.0118374
139 -0.0161114 -0.0126921
