ITEM: TIMESTEP
17000000
ITEM: NUMBER OF ATOMS
400
ITEM: BOX BOUNDS pp pp pp
0.0000000000000000e+00 2.0000000000000000e+01
0.0000000000000000e+00 2.0000000000000000e+01
-5.0000000000000000e-01 5.0000000000000000e-01
ITEM: ATOMS id vx vy
86 0.0152776 -0.0625148
223 -0.0107151 -0.0163302
99 -0.0445398 0.00899804
206 0.00529323 0.0501755
152 -0.0246166 0.0421746
325 -0.0158351 0.000328008
96 0.0125807 0.0247633
357 0.00579049 -0.000598098
331 0.0124245 -0.0275472
249 0.0265506 0.0268416
125 0.0164075 -0.0685279
127 0.0521547 -0.0128279
268 -0.015263 -0.0841742
8 0.00566515 0.0163771
247 0.0441106 0.0181105
326 0.036813 0.073251
232 -0.0118575 0.0217483
98 -0.0366781 -0.00716118
53 -0.00255532 -0.0440862
379 0.000799726 -0.0491142
259 -0.0127781 0.00576689
350 0.0673629 0.0110387
224 0.0164381 0.00672724
33 -0.028794 -0.0414594
110 0.0474758 -0.0463894
400 0.00952185 0.0196898
82 -0.0216123 -0.00655708
93 0.0413328 -0.018873
177 -0.0233323 -0.0722273
51 0.00222894 -0.0253562
30 0.000750624 0.00458781
395 0.0129338 -0.0196998
235 -0.0602305 -0.0354267
345 0.051203 -0.0185447
239 0.00780095 0.0162249
157 0.0281836 -0.0614634
328 0.0246367 -0.0555872
10 -0.0304904 -0.0136547
316 -0.0743628 0.0030521
74 -0.0636381 0.011126
349 -0.0193316 -0.00108663
375 0.0267777 0.021634
40 -0.0250238 0.00392441
368 0.0116219 0.0066292
117 -0.0477154 0.0361012
55 0.00392913 -0.0111367
120 -0.00830547 -0.00654481
89 -0.0134496 -0.00826044
392 -0.0155065 0.0160658
134 -0.0127755 0.0047998
390 0.0225036 -0.0273545
122 0.0260278 -0.0260251
56 0.00539833 0.0249028
83 -0.0345851 0.0204851
380 0.0403037 0.0239193
219 -0.0284478 0.000735032
72 0.00419112 -0.0389669
151 0.0511769 0.00339698
312 -0.0407607 -0.00790705
295 -0.0256841 0.00954299
94 0.017073 0.0461284
24 0.0186815 0.00361684
174 0.0518638 -0.0675701
63 -0.0306811 0.0451807
57 -0.00181325 0.00629035
85 -0.0179136 0.038709
264 0.0508084 0.00830338
322 -0.0145362 -0.0232535
290 0.0011974 -0.00269261
288 -0.0567572 0.00277596
308 -0.0169707 -0.00913459
391 0.0575949 0.0112155
186 -0.0290917 0.00410974
76 0.0269626 -0.00708406
229 0.0204506 0.00729752
181 0.0267175 -0.0161638
11 -0.00693529 -0.048983
9 0.0214804 0.0533432
29 -0.0162471 0.0049913
54 0.00611064 0.0192669
20 -0.0135738 -0.0533797
136 -0.0204343 -0.0324846
256 -0.00753526 -0.00132167
109 -0.0475893 -0.0366437
337 0.00230043 -0.0437767
118 -0.0433393 -0.0363665
52 -0.00757336 -0.0194622
26 -0.0559137 0.00971842
352 -0.0135987 -0.0291649
78 0.0151504 -0.0315451
155 0.0225871 -0.00623351
275 -0.0274426 0.0323447
339 -0.045391 -0.036261
298 0.0269851 -0.0241561
255 -0.0138982 -0.0262947
123 0.0438709 -0.0482334
44 0.00861253 -0.00808706
303 -0.0182266 -0.0439743
208 0.0302962 0.0291736
317 -0.0192562 -0.0468638
79 0.0190761 0.0197731
58 -0.0275315 0.0496676
36 0.0295805 0.0144236
254 -0.0239537 0.0398683
396 -0.0410387 -0.00767069
106 -0.0170395 -0.00476734
67 0.0149731 0.0128656
140 0.0405686 -0.0307142
115 -0.029998 0.030489
22 0.00558648 -0.000246712
145 0.0214663 0.0369311
65 0.0452965 -0.00741753
68 -0.013578 0.0573421
137 0.0729091 0.010839
43 -0.0486912 0.0135929
363 0.000844429 -0.00432804
60 -0.0129366 0.0441356
252 0.00515502 0.0423199
101 0.00392098 0.00922248
388 0.019174 0.00822581
34 0.0572517 -0.014413
107 -0.0383355 -0.0247987
180 -0.00793149 -0.0628799
197 -0.0611963 0.00663729
244 -0.00573527 -0.00439666
394 -0.02085 -0.0310846
218 0.0534061 0.0557839
178 0.0155504 0.0286253
366 -0.0328176 -0.0406724
69 -0.0237438 -0.00352013
324 -0.0129979 -0.0474135
102 0.0395572 -0.0127609
170 -0.0100047 -0.0281729
164 0.0888142 0.0344045
171 -0.0189917 -0.0478564
195 0.0593047 -0.00939599
204 -0.0214169 0.00157923
215 -0.0129792 0.0129158
80 0.00345356 -0.018703
228 -0.0333727 0.00294818
217 -0.00262547 -0.0304218
111 -0.00977406 0.0561413
146 -0.0980516 -0.0206219
372 -0.0351077 0.0294911
88 0.028748 0.054035
301 -0.00353912 0.0306914
278 -0.0192966 -0.0796443
271 -0.0131722 0.0129823
66 0.0296834 0.0489913
7 0.00505599 0.0328737
70 -0.040328 -0.0045855
144 0.0229244 0.0556594
121 -0.000557854 0.0225604
231 -0.00323138 -0.0442026
172 -0.0299859 0.023866
291 -0.0799826 -0.00664245
153 -0.00326488 -0.0261413
342 -0.0373123 0.0793725
202 -0.0356005 0.0612769
297 0.0342374 -0.0283104
112 0.000519253 -0.0373792
233 -0.0511038 0.0181336
393 -0.0251574 -0.00432194
221 0.00677517 0.0314758
240 0.00776751 0.0289568
241 -0.0134086 -0.0596335
168 0.0299754 0.00792382
124 0.016211 0.0168686
211 0.00999175 -0.0493647
48 -0.0194352 0.00470167
313 -0.0387796 0.00994949
75 0.00295361 -0.0139597
279 0.0556472 -0.00965314
385 0.0418329 0.0104081
188 -0.0424759 0.048278
148 -0.0465408 0.0283563
163 -0.0552509 -0.0165565
73 -0.0108142 0.019511
329 -0.0215017 -0.0103799
128 0.00132699 0.0283371
183 0.00393743 0.00188589
384 0.00378934 0.000238323
364 -0.0312328 0.0339726
213 -0.0176585 0.0148375
18 0.0215471 0.0374174
87 -0.0132608 0.0293448
294 0.00446731 0.0235534
335 -0.0053651 -0.0537967
304 -0.0221484 -0.00818686
135 -0.00653185 -0.0271974
169 0.0138821 0.0363182
95 0.0470674 -0.000189531
103 -0.0153199 0.0052784
347 -0.0345974 -0.00822013
49 -0.00391448 0.0164014
175 -0.0358858 -0.0942738
193 0.000863213 -0.0629784
182 0.0265154 0.0115902
131 0.0132705 -0.00434318
116 -0.0229186 -0.0602013
191 0.00396484 -0.0054733
161 0.00516982 -0.0108205
100 0.0344904 -0.065463
358 0.0264051 0.0125727
154 0.0899633 0.0135683
16 -0.00672328 -0.00664917
263 -0.0206362 -0.0478984
1 0.00773392 0.0470588
292 0.0190084 -0.0550339
159 0.0323167 0.020796
266 -0.00670034 0.0144972
23 0.0466414 -0.0285009
234 0.0613167 -0.0141984
162 -0.000441858 0.0244791
119 -0.0193018 -0.0605136
184 -0.0400176 0.0159887
285 0.0376906 0.0243218
50 -0.00168905 0.0211575
194 0.0295904 -0.0127116
38 0.00688071 -0.0427595
212 -0.0298015 -0.0103209
334 0.0388784 0.0543642
84 -0.00606862 0.00160603
141 0.0059486 0.0166157
45 0.0290199 -0.0421965
114 -0.0516531 0.00995632
113 0.00440688 -0.00601591
216 0.0341225 -0.0407745
296 -0.0282664 -0.00872384
220 -0.0101853 -0.0305933
356 0.0122219 0.0158085
198 -0.0131635 0.0406442
270 0.00458491 -0.0512857
371 0.00937998 -0.00883301
104 -0.0247255 -0.00934743
199 0.0281552 -0.0120428
262 -0.0145462 -0.00562883
310 -0.0304922 -0.0156792
156 -0.0454586 -0.00381391
374 -0.0132608 -0.064353
209 0.0137547 -0.020548
142 0.018392 0.0100499
179 -0.0424838 -0.0298899
32 0.0525654 -0.0177456
261 0.0225884 -0.0285906
5 0.0125494 0.00608398
300 -0.0412482 0.0185379
359 0.00232331 -0.0412768
245 0.0372745 -0.00287136
133 0.0414798 -0.0198671
196 -0.00269818 0.0380154
258 0.0115934 0.000514339
158 0.020741 0.00292411
243 0.0504405 -0.0166501
238 0.0369375 0.0348127
340 0.0075721 -0.0504101
92 0.0537962 -0.0378453
386 -0.00256883 0.0147921
200 0.0050145 -0.0188997
21 -0.0256959 -0.00753179
205 0.00666991 0.00500472
192 0.0156391 -0.0144754
281 0.0671341 -0.010973
149 -0.00148037 0.0523553
318 -0.0111924 0.0320022
147 0.0151662 -0.00316205
369 -0.0204312 -0.0158657
214 0.00562347 0.0262822
201 -0.0450266 -0.0277822
226 -0.00491262 -0.0295388
360 -0.0130307 -0.0320035
203 -0.0129712 -0.064583
47 -0.0463976 0.046227
277 0.0366388 0.00568235
351 -0.00388426 -0.0112531
367 0.0253176 0.013465
253 -0.0254408 -0.0242283
230 0.0215234 -0.00634153
274 -0.00862626 0.0158901
189 0.0113666 -0.0276461
160 -0.0431539 -0.011616
41 0.0453204 -0.045075
354 -0.00136963 -0.0669737
105 0.0378145 -0.0245757
260 -0.011404 0.111153
129 -0.00571968 -0.0362296
227 -0.033128 0.00880007
59 -0.00703872 0.0384731
314 -0.0838044 0.00732376
42 0.00970917 -0.029973
187 0.0610682 -0.0351167
383 0.0145453 0.0410225
126 -0.0493546 0.0446001
237 -0.0680112 -0.0549128
207 0.010839 0.00156381
398 -0.0244901 -0.0354636
185 0.0221898 -0.0228253
143 0.00463767 0.00114885
306 -0.010724 -0.0179786
338 -0.0221789 -0.033765
250 0.0340865 0.000781382
14 -0.0231708 0.0315752
282 -0.0113621 0.0224059
269 -0.0249848 -0.0314672
293 0.0551396 -0.0304116
165 -0.00531499 0.0105109
284 -0.0606975 -0.0507553
276 0.0130563 0.00524487
346 0.0544467 0.0158178
166 0.00706191 -0.0407807
332 -0.058195 -0.0365674
365 -0.0489375 -0.0183684
225 -0.0155916 0.00888204
305 0.0102709 0.0258427
28 -0.0677099 0.0202216
376 0.0369374 0.0526161
46 -0.0284492 0.0286747
311 -0.0421404 -0.0280363
15 -0.0134399 0.00101351
3 -0.000403781 -0.0180188
381 -0.0294195 0.00730629
323 -0.0487928 -0.0275757
280 0.0466982 0.00966701
248 -0.0596015 0.0570895
90 -0.0221588 0.00133783
287 0.0153858 -0.0843525
108 -0.00683447 -0.00464866
373 -0.0639877 0.0565167
341 -0.0332069 -0.0268266
61 0.00511424 -0.0300403
138 -0.03237 -0.0146791
353 0.0028885 -0.0275972
327 0.00982838 0.0402705
309 0.0351628 0.0381392
267 -0.045438 0.030073
91 0.0306028 0.00804799
236 0.0236188 -0.0406495
348 -0.0319315 0.0270468
13 -0.0214344 0.000924284
130 -0.0484109 0.0276274
307 -0.00168684 0.0273837
377 0.0148377 0.0111845
17 0.00549746 -0.0496541
286 0.00305956 -0.00546541
336 0.0152309 -0.00707976
167 0.0149191 0.0122265
71 0.0193796 0.0242632
150 0.0322451 -0.0354137
251 0.0138121 -0.00602361
173 0.0309255 -0.0488714
19 -0.00529421 -0.0501055
378 0.0174436 -0.0529645
265 0.0208924 0.0222085
321 0.0097511 0.025356
272 -0.040871 0.0372575
27 -0.0310566 0.0604537
190 -0.0177135 -0.0224328
333 -0.0540416 -0.0198297
389 0.0124637 -0.0352525
399 -0.000223343 -0.00759176
246 -0.0158836 0.00787786
302 0.0229783 0.00385086
176 -0.0437415 0.0360939
387 0.0223391 0.0169399
12 -0.0370803 0.0518599
97 0.00183933 0.00551375
289 -0.0318129 -0.00530462
382 0.0153001 -0.0332684
330 0.0371212 -0.00572155
132 -0.102244 0.0330032
25 -0.0420021 0.0190166
315 0.0637759 0.0365422
370 -0.0354652 -0.0303033
257 0.0201415 -0.024173
210 -0.00480355 -0.0245071
397 -0.0181306 0.000262134
355 -0.0325291 -0.00955891
242 0.0259481 0.0253258
2 -0.0194821 0.0859864
273 -0.0564199 -0.0293853
35 -0.0392663 -0.00333844
6 -0.0101631 0.0280768
299 -0.0562244 0.00210797
344 0.0170342 -0.0258419
283 -0.035286 0.0266212
361 -0.0166065 -0.0155726
39 -0.0122025 0.010514
343 -0.0516277 0.00373509
320 0.00597763 -0.0213551
77 0.0229996 0.0265841
139 -0.0102202 0.0049755
4 -0.00383184 0.000895901
64 0.0229141 -0.0299768
81 0.0136863 -0.0204691
62 -0.0196728 0.0262391
319 -0.0335062 0.0155655
31 -0.0316782 0.00696625
222 -0.091541 -0.00171149
37 -0.0203392 -0.0182421
362 -0.0029968 0.000461089
