ITEM: TIMESTEP
18000000
ITEM: NUMBER OF ATOMS
400
ITEM: BOX BOUNDS pp pp pp
0.0000000000000000e+00 2.0000000000000000e+01
0.0000000000000000e+00 2.0000000000000000e+01
-5.0000000000000000e-01 5.0000000000000000e-01
ITEM: ATOMS id vx vy
397 0.0239787 -0.0114645
299 0.0264987 -0.0489916
382 -0.0249657 0.0433479
62 0.00572278 0.0315016
319 0.00105456 -0.0135844
33 -0.022309 -0.0605233
389 0.0400679 0.00643674
134 -0.0142046 -0.0297398
379 0.0180673 -0.0214518
93 -0.0316186 0.034126
177 -0.0242856 -0.0323459
362 0.0315818 0.0195581
249 0.001477 -0.00834712
4 0.0142873 0.00409388
125 0.0111786 -0.0103325
27 -0.0380848 0.0197494
8 -0.0153919 0.0012549
308 -0.0234561 -0.0324265
224 -0.00356075 -0.027626
31 0.0258145 0.0149534
232 -0.0364185 -0.0474927
72 0.0169587 0.00506694
357 -0.000515424 -0.0367756
320 -0.0138253 0.00450899
235 -0.0243437 -0.0237034
395 0.0304024 0.0252001
81 -0.0374105 0.0147756
328 0.0241664 -0.0203272
2 -0.0346096 0.0351855
316 -0.0100908 0.0179935
400 -0.0325397 -0.0308533
206 0.0357685 0.00148262
392 0.0372064 -0.0407667
53 0.0328394 -0.00487647
40 -0.0696199 0.013038
368 0.00230896 -0.0114813
96 -0.00286184 -0.0574103
83 -0.044526 -0.0474184
157 -0.0374107 -0.0288694
219 0.00170746 0.0118457
127 -0.0256526 0.0333479
55 0.000593928 -0.0174738
268 0.0086226 -0.0786236
223 -0.0282831 0.0312412
288 0.0188855 -0.0129208
98 -0.020574 0.0111646
65 -0.0366842 -0.0406711
349 -0.0254188 0.0117027
152 0.0177618 -0.00620727
325 -0.010165 0.0812594
51 0.00198163 -0.0224874
380 0.0319979 0.023659
345 0.0832362 0.0108643
396 0.0229147 -0.00408447
350 0.0281546 0.00808345
110 0.0166416 -0.031889
74 -0.0137346 0.0385211
375 0.0121482 -0.01209
295 0.0246936 -0.0251879
56 0.00270463 0.0231212
331 -0.0241962 0.0211124
174 -0.000345249 -0.0223096
239 -0.0516852 0.0437532
109 -0.0377039 0.0266996
117 -0.0230697 -0.0293598
10 0.0137208 -0.0330709
303 -0.0321838 0.0120654
89 -0.00502597 0.0621757
26 0.00142522 0.0363083
317 -0.0606104 -0.0257252
76 0.0553246 -0.00580816
20 -0.00541776 -0.0193949
229 0.0558191 0.0277027
136 0.0101538 0.00553959
254 -0.04837 -0.0159364
64 -0.00211298 -0.0805684
256 -0.042277 -0.0207077
57 -0.0231385 -0.036529
322 0.0258628 -0.00548772
290 0.0198844 0.000542073
120 0.00784541 -0.00165983
52 0.0469685 -0.0201063
186 -0.0157129 -0.0391274
390 -0.0105884 -0.0084046
178 -0.0307628 0.0123519
337 0.00171367 -0.00918927
11 -0.017139 0.0221474
264 0.0214839 0.0215229
44 0.0328847 0.0244055
34 0.0510687 0.0280776
171 0.02484 -0.0429394
54 0.0171163 0.00894686
122 -0.0239397 0.103315
312 0.0138887 0.022409
297 0.00246786 -0.00812063
275 0.00794301 0.102114
363 -0.0105441 0.0452762
217 0.0357144 0.0252658
252 0.0403173 -0.0254987
123 -0.0468063 -0.0270633
85 0.0449516 0.00992948
145 -0.0161908 0.000107256
9 0.00142229 -0.0342032
352 -0.0622625 -0.0360197
155 -0.0424759 0.0578298
94 0.00715204 0.0110295
106 0.00713815 -0.0258385
181 -0.0177713 0.0387378
63 0.0686168 -0.0439378
255 -0.0355238 -0.0266442
231 -0.00940806 0.0398938
67 0.0111895 0.0241096
102 -0.00890887 0.0188341
140 0.0169585 0.00593684
151 0.0525438 0.00976447
24 0.0369479 0.00736412
43 0.0134232 0.0429182
115 0.012658 -0.0200681
391 -0.0418836 0.00114381
68 0.00312016 -0.0273299
208 0.00861241 0.00024391
78 -0.0429956 0.0108542
394 -0.0149702 0.00291287
80 -0.0618329 -0.000294433
69 0.0479711 -0.0106243
298 0.0259418 0.014762
324 0.0713982 0.0271657
118 0.068797 0.00436132
388 -0.00200165 -0.0373168
180 -0.0627777 -0.051616
271 -0.00107538 0.0279752
70 0.0377815 -0.018814
29 -0.0243392 0.0865855
218 0.0296602 -0.0351168
183 -0.0446452 -0.0387426
88 -0.0116944 0.000501231
211 -0.0231464 0.0279674
22 0.000343181 -0.0435666
107 -0.0139251 -0.00834019
291 0.0342738 -0.0494916
204 0.000908613 0.0244093
58 -0.0230096 0.0383971
339 -0.0120268 0.0236942
112 -0.00234398 0.00257121
366 0.011699 0.021574
372 0.00359658 0.0338818
101 0.0296626 -0.0194119
263 -0.00580541 -0.00887898
153 -0.0176676 0.00920098
197 0.0481329 0.0171094
79 0.0177172 -0.00639826
244 0.0181722 -0.0601259
137 0.0413757 -0.0502849
279 0.0162083 -0.003349
329 0.0103247 -0.0107275
60 -0.0298238 -0.0256637
364 -0.00551241 0.0128929
240 -0.0185988 -0.0544213
241 0.0228295 -0.0313489
170 -0.00451759 0.0395423
172 -0.0109251 -0.00160188
164 0.00413495 -0.00466809
278 -0.0199541 0.0163676
7 -0.0217739 0.0033792
292 -0.0158192 0.0195337
215 0.0169967 -0.00457915
36 -0.00611204 -0.00118628
191 -0.0386215 -0.0427237
335 -0.0118237 0.0268312
233 0.00371223 -0.0396254
385 -0.0217106 -0.0181978
121 0.0516074 0.0603385
146 -0.0516111 -0.0176024
228 0.0590362 -0.0137236
128 0.0326906 -0.0301263
234 0.0122196 -0.0371267
371 0.0611228 0.00199365
175 -0.0326428 0.0112652
184 -0.0106777 0.00426285
195 0.0359917 -0.0114198
313 -0.000442862 0.0122906
144 0.00739807 0.034629
116 0.0261561 0.0239504
266 -0.0557516 -0.0225531
304 0.0458102 -0.00487659
221 0.0113782 -0.0140625
384 -0.0202583 -0.0653662
301 0.0322131 0.0123369
168 0.0126062 -0.00518667
66 0.0486169 -0.0564237
1 -0.0307027 -0.0292754
169 0.0205241 0.00112424
135 -0.000324888 0.00986136
356 -0.0476394 0.0400498
154 0.00809951 -0.0319053
104 -0.030709 -0.0218904
148 -0.0674461 0.026187
202 -0.00290672 0.0326785
131 -0.0180265 -0.00890919
161 0.0354042 -0.0228045
133 0.0509581 0.0431907
73 0.00327861 0.0332157
393 0.0086718 0.0112876
16 0.0308114 -0.0332836
124 -0.0341951 -0.00305258
294 -0.0706987 -0.0330647
182 -0.0334475 0.0218045
163 0.0171522 -0.002325
50 0.0221351 0.014425
75 -0.0157507 -0.0140977
220 -0.00508615 -0.0461063
374 -0.0230414 -0.0395441
192 0.0124246 -0.0574157
95 -0.0477312 0.0268537
213 -0.0254738 0.0269042
87 0.0122887 0.0379769
347 -0.00300549 -0.00984811
300 0.0267174 0.0150333
342 -0.014886 0.0135872
216 0.00895542 0.047374
212 -0.015777 -0.00850713
196 -0.00295149 -0.029926
23 -0.0145177 -0.0197346
111 -0.0152629 0.0194619
84 0.0102827 0.00820181
141 -0.0208297 -0.0458302
45 -0.0231283 0.05376
113 -0.0457667 -0.0285213
92 0.012971 -0.0346709
193 -0.0188043 0.021359
296 -0.000802835 0.0145731
194 0.0167519 0.0221023
41 -0.025308 -0.0526877
100 -0.0015981 0.00948957
358 0.00282925 0.0141108
334 -0.00204807 0.0387382
188 -0.0609976 0.0205461
119 -0.00112403 -0.00970602
359 0.0179166 -0.0150154
48 -0.00927181 -0.0278947
245 -0.00451127 0.0500579
360 -0.00773504 -0.0455201
203 0.0825163 0.0242065
103 -0.0283921 -0.0116956
179 -0.0150191 -0.0141269
270 0.0252982 -0.0503643
162 0.00314304 0.0975307
14 -0.0159452 -0.0425623
386 0.0190154 -0.0440203
226 -0.0402325 0.0632556
201 0.0331614 -0.000510252
38 0.0165175 0.0507349
205 0.00850403 -0.0153274
258 -0.0422843 0.0278961
198 -0.0318361 -0.00608101
142 0.0485582 -0.0737626
143 0.00458133 0.00112465
147 0.00733274 -0.0190185
199 0.02679 0.0623224
114 -0.0178278 -0.00777371
49 0.0388405 -0.0133904
250 0.0303739 -0.0278711
285 -0.0182021 -0.0400873
156 -0.0104597 0.00715057
269 -0.0247489 0.00245873
209 -0.0347525 -0.0170408
354 -0.0145602 0.056973
243 -0.00599341 -0.0306622
238 0.0356692 -0.0222529
369 -0.0102306 0.0590786
18 0.0252058 0.0145682
306 0.0183593 0.00574872
32 0.0676032 -0.00659342
340 0.0324535 0.0297053
187 0.00240271 -0.00549747
383 0.0269171 -0.0423862
159 0.00329595 0.054411
200 0.0193948 -0.0240717
21 0.0113504 0.0110995
160 0.0105127 -0.0120326
129 0.0338234 0.0027888
398 0.024339 0.0174304
262 -0.0272973 0.0398326
305 0.032119 0.0221861
367 0.0302057 -0.0575536
261 -0.023621 -0.0157464
61 0.00333905 -0.0161954
378 -0.0137933 -0.0178285
105 0.0554342 0.0138052
281 -0.0182491 0.0165612
332 0.0116346 0.0186657
185 0.0739229 -0.0341513
253 0.0385415 0.000365006
287 0.0166755 -0.0221076
42 0.020522 0.0576163
15 0.0148103 0.00795822
138 -0.0197445 -0.0171181
237 -0.0246557 -0.00583539
227 0.00938757 0.0202544
365 0.00166468 0.000509839
277 0.0584625 -0.0592116
338 0.0375953 -0.00019597
310 0.0246227 -0.00692218
274 -0.0847499 -0.0313977
293 -0.0247693 0.00216089
149 -0.024932 0.030052
47 0.0238508 0.0344638
248 0.0103399 0.0214277
351 0.0473932 0.018705
236 -0.0245769 0.012892
130 0.013768 0.0189181
214 0.0129694 -0.0175637
230 0.0100613 0.00472744
282 -0.0606685 0.000246013
126 -0.00874746 0.0319985
165 -0.0224714 -0.00286514
318 0.00776371 0.0221372
59 0.0126827 0.0605516
5 0.0236171 0.0548108
3 -0.0381517 -0.0371055
189 -0.0126445 0.0369684
336 0.00625081 -0.0709236
19 0.0203856 -0.0274404
158 0.01429 0.0274804
166 0.0313306 -0.0566561
225 -0.048297 0.00389694
71 0.0231558 -0.0271271
108 0.0708764 -0.00835137
28 0.00274358 0.0034935
341 -0.00136058 0.0506668
353 -0.00521191 0.0101632
284 0.0538854 -0.00397987
276 -0.0167112 0.0148723
323 -0.0534572 -0.0259167
280 0.068452 -0.0415516
333 -0.0246908 -0.0166519
314 0.0384578 0.0227736
17 0.0066788 -0.0158097
311 0.00701576 -0.0294814
257 -0.0390526 -0.0193348
302 -0.00358459 -0.0569663
207 0.0349641 0.00842405
35 0.0091084 -0.0208866
260 -0.00824451 0.0207746
267 0.113251 -0.0112906
91 -0.00452435 -0.0451375
348 -0.00113316 0.0134487
373 0.0297137 -0.0309133
210 -0.0511036 0.0190921
387 0.00754475 0.0135358
381 0.0104696 -0.021153
309 0.00805405 0.0272463
167 0.0394795 -0.0266387
376 -0.0345796 0.0668514
99 -0.00133462 -0.0405014
307 0.0160122 -0.00286643
25 0.00481228 0.0135255
150 -0.00613509 0.0159609
176 -0.013407 0.014259
12 0.00354991 -0.00334586
321 -0.0815924 0.0476698
327 -0.0111117 0.00337982
283 -0.0269116 0.0252162
273 -0.00786181 -0.00538187
326 0.0228433 -0.0462036
222 0.0119134 -0.0573161
377 0.0361011 -0.0323882
46 -0.0345722 0.0282443
77 0.0223817 -0.0650952
265 -0.0159378 -0.00434963
6 -0.0309393 0.0215529
355 0.024199 -0.0311912
97 0.00215219 -0.0178943
346 -0.0054803 0.00599846
344 0.0188106 0.0365126
86 -0.013204 0.00945729
343 -0.00405344 0.00717888
132 0.00981949 0.0147169
399 0.00552428 -0.00472394
286 0.00545974 0.0284452
90 0.0315731 0.00741812
13 -0.0268476 0.0649919
247 0.0187999 0.01423
82 0.00886797 -0.0508894
315 0.00530826 -0.0252165
246 0.0219573 9.66279e-05
173 -0.0242883 0.0177669
251 0.0188841 0.00703746
259 0.0793215 -0.00269539
139 0.00173225 -0.029892
289 0.0163091 0.0281136
242 0.0334921 0.00456398
272 0.0276458 -0.0111954
330 0.019449 0.0101573
190 -0.0146379 -0.00965543
361 -0.00453058 0.0195815
39 0.0434206 0.0232331
370 -0.0399323 0.0155604
37 -0.0276624 0.0323761
30 -0.0602276 -0.0414998
