ITEM: TIMESTEP
19000000
ITEM: NUMBER OF ATOMS
400
ITEM: BOX BOUNDS pp pp pp
0.0000000000000000e+00 2.0000000000000000e+01
0.0000000000000000e+00 2.0000000000000000e+01
-5.0000000000000000e-01 5.0000000000000000e-01
ITEM: ATOMS id vx vy
331 0.0126112 -0.0330285
249 0.0809738 0.0395908
27 0.019765 -0.0354772
8 -0.00381412 0.00129885
272 0.0558598 0.0113868
13 0.0136901 -0.013628
316 -0.0337007 0.00381751
31 -0.037376 0.0377904
357 0.00172877 0.0125446
177 -0.0301066 -0.0105662
254 0.0385434 -0.0400147
219 -0.0541234 0.00975491
110 -0.0357233 0.0432969
65 0.00866357 0.0309989
37 0.020505 0.0145122
295 -0.0348784 -0.0079051
174 -0.0195875 -0.0296052
337 -0.0179754 -0.0474548
242 -0.012373 -0.00468702
268 -0.0122903 0.0260806
90 0.0382114 0.00677125
223 -0.0253824 0.0248524
74 0.0335893 -0.0134568
392 -0.0409314 0.0366876
72 -0.0695365 -0.00255848
235 0.0101519 0.0394702
368 0.0385524 -0.0348891
51 -0.0375449 0.0336314
395 -0.0593189 -0.00515613
64 -0.0221273 -0.075701
157 0.0238821 0.0180004
322 0.0163212 -0.0140178
55 -0.014892 -0.0199214
308 -0.0103199 0.0138048
53 0.0469498 -0.0287214
152 -0.0247168 -0.00807195
380 -0.0641336 -0.0482074
4 0.0466667 0.00544035
2 0.0293101 -0.0126294
10 -0.0695385 -0.0186258
288 0.040201 0.0385857
186 -0.0112766 0.0284968
98 -0.0381896 -0.05365
20 -0.0256946 0.0227621
136 -0.00863409 -0.0140723
106 0.0329146 -0.0326207
81 0.0850999 0.00859134
345 -0.0449445 0.0539655
11 -0.00885828 0.0374315
117 0.012195 -0.0267101
290 -0.00255777 0.00571547
330 0.018993 0.0106916
171 0.0275871 -0.0179016
317 0.0277952 0.0383112
40 0.00178434 0.0357893
349 0.0325168 -0.0149118
325 0.00762203 -0.017286
229 -0.0111026 -0.0427954
56 0.0102057 0.00678359
178 0.00810869 -0.0213241
80 0.00519141 -0.0240628
127 0.0649619 -0.0213887
264 0.0236252 -0.00085593
102 0.0215718 -0.0157734
303 0.0278968 -0.0176384
400 -0.0153023 -0.0158256
52 -0.043021 -0.0436263
89 -0.0233535 -0.00558985
145 -0.0093499 -0.0129209
76 0.064951 0.0316027
390 -0.0462889 -0.0310654
217 -0.011865 -0.00656049
69 -0.00506477 -0.0564595
123 0.0308966 -0.0421156
85 -0.00953337 -0.0659378
350 0.00663839 0.00501013
120 0.0416526 0.0122382
26 -0.0168679 0.00411196
352 0.00875634 -0.016733
208 -0.0250074 0.0060288
54 -0.0054028 0.00764881
24 0.0347407 -0.000479804
239 0.012456 0.0498606
109 -0.0249375 0.0108096
231 0.00133182 -0.00228366
44 -0.0197019 0.00592107
34 0.00492474 0.0298655
118 0.0217708 0.00274917
391 -0.00556277 0.0118861
312 -0.00257881 0.0315978
375 -0.0138614 -0.0543
181 -0.0466749 0.0061792
57 -0.0248662 0.0470467
255 -0.0452337 0.0101421
324 -0.0197991 0.016245
140 0.0146439 0.0388503
388 0.0228578 -0.0334789
180 -0.00589799 0.0335486
9 0.0160083 0.00624652
78 0.0432186 0.0354994
297 -0.0150591 -0.01558
155 -0.0109565 -0.0125186
107 -0.0583153 -0.00295157
101 -0.00972655 0.0151032
68 0.0371884 -0.0103113
122 0.00244268 0.0122857
244 0.0149957 -0.0188271
339 -0.0274062 -0.0168246
363 0.0238253 -0.00365435
304 0.054165 0.00427545
183 0.00104727 0.012261
256 -0.0541678 0.0344184
298 -0.0289563 0.0061833
63 0.0141364 -0.0300956
252 -0.0062739 -0.00793537
115 0.00993675 0.0397554
175 0.0191203 -0.0241229
153 -0.00508987 -0.030768
70 0.010536 0.000969945
94 0.0369473 -0.00425991
43 -0.0151075 -0.0194413
218 0.0254246 0.0243262
396 0.0318425 0.0375367
240 0.0253978 0.00159239
211 -0.0279077 -0.0310169
241 0.0247931 -0.0391701
67 0.000400498 -0.0222192
263 -0.0105133 -0.0569623
271 0.00618796 -0.00697425
292 0.00869168 0.0253546
215 -0.00660309 0.0404788
191 -0.0104583 -0.0151041
275 0.0104461 0.0132231
372 0.0619298 0.00016232
16 -0.0206959 0.0236395
1 -0.00517957 -0.00765903
66 -0.00801139 0.00580786
204 -0.0379869 -0.00677099
151 -0.00634092 0.0166181
394 -0.00448228 0.00813379
169 0.0272795 0.00434381
112 -0.0174051 0.0152522
329 -0.00618639 0.0213585
221 0.0250695 0.0458864
384 0.00634967 -0.0506689
164 0.00213039 -0.0317065
278 0.00129015 0.00198126
144 -0.036461 -0.0553234
29 0.0194868 -0.0338514
220 0.0285873 0.0106404
79 0.0495624 -0.00787261
137 -0.0146896 0.0101171
233 -0.0123339 -0.0754723
356 0.00781614 0.0109889
385 0.00486264 -0.000388989
366 -0.0279329 0.0245611
88 0.0428469 0.0517201
170 -0.0819313 0.0192911
184 -0.0307673 0.046211
22 0.0332706 -0.0135902
279 -0.0328589 -0.0178274
374 -0.00522756 0.0159483
135 0.00802528 -0.0742479
228 0.0335148 -0.00101416
234 -0.0257338 0.012863
168 0.0167432 -0.0218903
371 -0.0276635 -0.0329341
294 -0.0291892 0.00973421
291 0.0387545 0.0238028
7 -0.00221363 0.0293273
266 0.0193704 0.0404733
335 0.0209011 0.0333741
196 -0.0277444 -0.0097738
161 -0.0533599 -0.0156961
60 -0.0169298 0.0316427
141 0.0161599 -0.00920973
364 -0.0447151 0.0891836
113 0.0194633 0.0246598
300 0.0119157 -0.0616507
195 -0.00465745 -0.0253825
48 -0.00913485 -0.042574
163 0.00981815 0.0456042
202 -0.0485509 0.0457041
116 0.0430458 -0.00796148
95 0.0287887 0.0362082
393 0.0284605 -0.0108301
73 0.011324 0.0164158
84 0.0163551 0.00853158
128 0.0396008 -0.00166431
172 -0.0141075 0.0259252
104 0.00747686 0.00737391
124 0.0123487 0.00269945
313 -0.0119098 0.00534952
75 0.0176737 -0.00627565
36 0.013641 0.0172849
192 0.00312587 -0.0413251
121 0.012415 0.0131565
154 -0.0347358 0.0634755
347 -0.017512 -0.0306162
119 0.0650497 0.000981259
197 -0.0332031 0.0559086
92 0.0376414 -0.0394199
359 0.00693625 -0.0513346
58 0.0125807 -0.0164975
342 0.0500263 0.0201937
245 0.0253914 -0.0213721
146 -0.00266702 -0.0281954
203 0.0135173 -0.0178748
103 0.0104331 0.00676412
213 -0.0541904 -0.00714065
188 0.00378621 0.019758
179 0.00581837 -0.00101388
193 -0.0230011 -0.00385049
212 -0.00784049 -0.0533786
216 0.00349738 -0.0433866
194 0.0204137 -0.0560848
23 0.034825 -0.0103515
111 -0.0435198 -0.0153601
301 0.00534406 -0.00956092
250 -0.0172701 0.0411535
50 -0.0311538 -0.0238756
360 0.0480505 -0.0273614
269 0.004882 0.0210201
198 -0.0204791 0.0691748
358 -0.0478768 0.0208786
367 -0.0166165 0.00714516
114 0.0302518 -0.0331911
148 0.00113895 -0.0219715
182 -0.0270054 0.0798122
187 -0.00634681 -0.0283483
201 -0.0145312 0.0196094
41 -0.0300138 0.020769
133 0.00299059 0.0100613
100 0.0192247 0.00479642
143 -0.0139329 0.000771007
142 0.00268051 -0.0491188
238 -0.0114581 -0.0249788
87 -0.0106966 0.0146085
162 0.0254765 0.0167421
49 -0.0103253 0.0426983
42 0.0142056 -0.0702431
226 -0.00914843 0.0102212
285 0.00359774 -0.005515
205 -0.0170058 0.0024345
38 0.0195916 -0.0265341
131 0.039783 0.0472214
237 0.011873 0.0249511
200 0.0295879 0.00416724
354 0.00913074 0.00680935
243 0.0147966 -0.00822068
262 0.0119866 -0.0353341
45 -0.00702775 0.00811153
305 0.0237716 0.031972
261 -0.00600161 0.0416669
310 -0.0307695 -0.0413348
230 -0.0250286 -0.0389985
386 -0.0325059 0.045379
383 0.0487271 0.0325753
296 -0.0169186 0.0285538
15 0.00281566 -0.000598422
156 -0.0357508 -0.0205075
318 -0.00314762 -0.00460933
158 -0.00669733 0.0216709
147 0.0291202 0.0128379
270 0.00282605 0.00289037
306 -0.0505952 -0.0198108
253 0.037649 -0.0353752
159 -0.0155298 -0.0284785
302 0.0375574 -0.0455373
293 -0.0420768 0.0173316
281 0.033814 -0.0301568
258 -0.0305297 0.0352334
334 0.0163125 0.0411726
365 -0.0108358 0.022457
199 0.0117269 -0.0103079
18 0.018376 0.031626
32 -0.0410525 0.0220844
338 -0.0245283 -0.0398841
274 -0.0191828 -0.0312284
61 -0.0051626 0.00951583
336 -0.0533718 -0.0176111
138 -0.00599509 -0.0288279
311 -0.0235974 -0.00595909
378 0.0336656 0.0321804
353 -0.0176965 -0.0313398
21 -0.0259964 0.020125
209 -0.0129639 -0.00994309
160 -0.0343867 0.0307871
129 0.0333649 0.00429889
332 0.0401447 0.0062661
227 0.0208255 0.0086017
369 -0.00859379 0.00675769
277 0.0163723 0.0197957
14 0.0336499 0.0280038
3 -0.0415166 0.0717026
35 -0.0135923 -0.0265109
398 0.0433218 0.023833
185 0.0323577 -0.0271881
373 -0.0127922 -0.0326757
108 0.0394367 -0.0224242
5 0.051793 -0.0247548
340 0.0579437 0.0360297
341 -0.0477099 -0.0467177
126 -0.039773 -0.0615023
25 0.0169636 -0.0550315
189 0.0453348 -0.0026918
210 0.00952358 -0.0178203
165 0.00234523 0.00958362
105 0.0498118 0.0212792
309 0.0468928 0.0589742
225 0.000850166 0.0417267
351 -0.0137697 0.0266641
333 -0.000609093 0.0130981
326 0.0223809 -0.0411892
214 0.0344689 -0.0337578
282 -0.0310971 -0.01704
381 0.0133603 0.0124408
19 -0.045268 0.0170517
12 0.00795187 -0.023773
276 0.0122694 -0.0298522
47 0.00363043 0.00800485
236 0.0227022 -0.0168097
17 -0.0607674 -0.040246
287 -0.00312431 0.0385819
130 0.0190029 -0.011425
377 0.035335 0.0126247
257 -0.0134712 0.0305635
176 0.0146359 -0.0332957
327 0.0412594 0.00585024
346 0.0231603 -0.0512591
91 -0.0660016 0.000729194
248 -0.0479318 0.0298351
348 0.00366474 0.00543677
222 -0.0177634 0.0321007
28 0.02623 -0.00227796
284 -0.0455225 0.00527807
149 -0.0308808 0.0588114
71 0.000483082 -0.0477245
314 -0.0698023 0.00691721
82 -0.0324105 -0.0323431
247 0.0456237 -0.0544695
99 0.0216279 0.026195
150 0.0569393 0.0346395
207 -0.00824698 0.016455
260 -0.0234141 -0.0367903
299 0.0317559 0.00711869
267 0.0543162 0.0292182
166 -0.0122778 0.050208
86 0.0649408 0.0318218
167 0.0124913 0.0297276
376 0.0261938 0.0169002
315 -0.0366076 -0.0180819
286 -0.000509894 -0.0144726
387 -0.0142509 0.0090107
139 0.00666591 0.0105771
97 -0.0206627 0.0580924
355 -0.00333452 -0.00968541
323 0.0226365 0.0419375
59 -0.0165218 -0.00653586
132 0.017013 0.017698
39 -0.0460556 -0.0165251
33 -0.0337163 -0.0234601
389 0.0925164 -0.0393479
307 -0.00906482 0.0335972
251 0.000985505 -0.0234379
265 0.00665366 0.0096403
362 0.0496263 -0.0110543
280 -0.0324724 0.00664631
361 0.0274082 -0.0795066
134 0.0265696 0.0016402
379 0.0104714 0.0126451
173 0.0109946 -0.0269567
399 -0.00173893 -0.00311209
320 -0.0255416 -0.0157801
246 -0.0380749 0.0186712
96 0.0124816 -0.013148
6 -0.00175601 -0.00810211
259 -0.0360988 -0.019385
328 0.0110301 -0.0364548
289 -0.0209843 0.00407091
283 -0.0243591 -0.0109514
273 0.00359213 -0.0177995
319 0.00903507 -0.0252919
232 0.0354712 -0.0560687
93 -0.0537617 0.00658907
370 -0.0196093 0.00944057
46 -0.000153936 0.026734
83 -0.0376931 -0.0167821
321 0.0106314 0.00977134
397 -0.0261602 0.0569099
382 -0.0226901 0.00898124
125 0.00464704 0.0102944
344 0.0179521 0.0329411
343 0.0434627 0.037023
190 -0.0382415 0.0314217
224 0.0360184 0.0207378
62 0.0199683 -0.0820894
206 0.0439595 -0.0038767
77 -0.0112384 -0.00569453
30 -0.0885592 -0.0334623
