ITEM: TIMESTEP
2000000
ITEM: NUMBER OF ATOMS
400
ITEM: BOX BOUNDS pp pp pp
0.0000000000000000e+00 2.0000000000000000e+01
0.0000000000000000e+00 2.0000000000000000e+01
-5.0000000000000000e-01 5.0000000000000000e-01
ITEM: ATOMS id vx vy
21 -0.0131902 -0.0566569
387 0.00890754 0.0314601
383 0.0414267 0.0624643
30 0.0198169 -0.0391044
370 0.0163007 -0.000920269
37 0.0229594 0.0180713
353 -0.0206165 0.0246597
393 0.0493138 -0.027044
359 0.00598577 0.00894431
380 0.0254997 -0.0458386
382 0.0232494 -0.0133405
5 0.0253452 0.0131111
47 -0.0029329 0.0423266
388 0.021968 0.0212355
53 -0.0127618 -0.0215229
33 -0.0366945 0.00369257
15 0.00692964 -0.0455372
16 -0.0291429 0.00579426
40 0.0220705 -0.0525068
378 0.0220129 0.0351858
18 0.00304972 0.0321816
64 0.0612633 -0.0320933
2 0.0143602 -0.0280171
25 -0.0127546 -0.0260662
381 0.00980683 -0.0351905
89 -0.0428254 -0.0376213
27 -0.0182408 0.00594099
90 0.0366789 -0.0116614
93 0.0100642 -0.0417569
56 -0.00331333 0.00998283
17 -0.00423822 -0.0177994
62 0.0179736 0.0600326
38 -0.0289488 -0.0160213
9 -0.0540209 0.0417973
11 -0.0264151 -0.000755435
10 -0.00427008 0.0196727
36 0.0157723 -0.00256548
396 -0.00610928 0.0510612
395 0.0194947 0.00832284
39 0.0226126 0.0122407
19 0.012145 0.033123
84 -0.0351403 0.0572758
45 -0.0234918 0.0233406
26 -0.0571093 0.0251485
46 -0.037519 -0.0185987
109 -0.00576383 -0.0713343
48 0.0193228 -0.0628465
70 -0.00191075 -0.0440036
14 -0.0364546 0.0417002
54 0.0236593 -0.0382707
73 -0.00963023 -0.00800274
399 -0.0256658 0.06169
361 0.0126807 -0.0322175
24 -0.0647807 0.0496273
4 -0.0163787 0.0269237
42 0.017735 -0.0325423
6 -0.0079354 0.00786982
44 0.0537371 0.0261003
74 0.0410722 0.0468144
55 0.0156734 0.0493561
58 -0.0551773 -0.070083
96 -0.0208633 0.0606291
60 -0.0193816 0.0402876
23 -0.019735 0.0304253
41 -0.0507918 -0.0392477
61 -0.00176261 -0.0146636
22 0.0172493 -0.02842
104 0.0586432 -0.00827016
63 -0.00805261 0.0568502
87 -0.0151972 -0.00179876
75 -0.00995984 -0.0312594
95 -0.0036974 0.057352
80 0.00213923 -0.00393424
101 0.0162826 -0.0670322
43 0.054542 0.011298
81 -0.0187606 0.0422505
86 -0.0044293 -0.0170766
67 -0.0184 0.0119308
28 -0.0203182 0.000785601
69 0.00141589 -0.0143339
94 0.0376869 -0.0486372
79 -0.0382082 0.0182717
120 -0.0092589 -0.00391472
100 0.0152322 -0.0196362
159 -0.0126862 -0.0478382
121 -0.00430519 0.0241088
102 0.0370601 -0.028834
107 0.0381626 0.0285445
49 -0.0628308 0.0324052
72 -0.0400642 -0.00418717
51 -0.0267781 -0.00737621
111 0.0764279 -0.0215634
76 0.00333549 0.0243874
138 0.0291966 0.0138122
117 0.0144025 -0.00776472
118 0.0347664 0.0125813
99 0.0367742 -0.0334185
140 0.0513833 0.0223319
105 -0.0408247 0.0334048
123 0.0962072 0.0231218
66 -0.00754103 -0.0481083
71 -0.0206482 0.0335968
91 0.0273249 0.0372173
50 0.0331271 -0.00836699
112 0.0576851 0.00878001
78 -0.0158302 -0.0232918
116 0.0259134 0.00213222
57 0.0429705 -0.0301784
158 0.0175863 0.00910409
177 0.00663534 -0.0321274
141 0.0128198 -0.00501233
82 0.00480681 0.0185531
161 -0.0234262 0.0218656
162 0.0474803 0.0107275
85 0.0330806 0.0111693
108 0.0274969 0.00240037
52 0.0231362 -0.0566494
110 0.0193368 -0.0216392
132 0.0114887 -0.0206284
92 -0.0347875 -0.00959493
134 -0.021444 -0.0050322
114 0.00815539 -0.000127869
115 0.0156262 -0.0598525
139 0.0265914 -0.0143077
124 0.0106105 0.0134257
130 -0.00924044 0.0021697
151 -0.00535742 0.0177269
34 0.0470976 0.0103799
173 0.00149382 -0.0243741
175 -0.0306375 0.0239152
59 0.0569274 -0.0272455
97 -0.0577472 -4.97446e-05
137 -0.017552 -0.00985107
83 0.0198834 0.00672741
65 0.00661297 0.0503235
113 -0.0559752 0.00248761
153 -0.00982587 -0.0456932
77 0.0411478 0.00301632
119 0.0427551 0.00883036
122 0.00395831 -0.0265577
145 0.0524314 -0.00840373
88 -0.014964 -0.0197278
169 -0.0336327 0.0168749
131 -0.0083517 -0.0130992
171 -0.000637849 0.00368625
133 0.0242027 0.00703458
172 -0.0252985 -0.0255163
155 -0.0384656 0.0130512
174 -0.0175735 -0.0190198
136 0.0193484 0.00473846
135 0.076663 -0.025046
160 -0.0468869 0.036014
103 -0.0282493 -0.0295258
144 -0.0268362 -0.0336365
143 -0.00612002 0.0425324
106 0.0416764 -0.0524196
234 0.0517736 0.0272353
179 -0.0117682 -0.0446359
178 0.0385729 -0.0185531
180 0.02193 -0.0585377
163 0.0193004 -0.00429221
129 0.0200156 -0.0167476
142 -0.0156598 0.056829
128 -0.00639199 -0.0495336
213 0.0170003 -0.0367358
209 0.00463028 -0.00543238
152 0.0599038 -0.0491709
197 -0.0688123 0.067859
181 0.0102433 -0.0557997
199 -0.0103588 0.0202264
126 -0.0144971 -0.00393281
166 -0.0112296 -0.0254651
68 0.0116201 0.0262125
189 0.0275432 -0.0109231
229 -0.00980211 -0.0489445
168 -0.0241066 -0.0219649
150 0.0122008 -0.0326371
195 0.0310925 0.0140893
235 -0.0217309 0.00403865
156 0.0176165 -0.0246837
216 0.00679003 0.00248092
182 -0.0469813 0.0152295
164 -0.000559953 0.0138514
167 -0.0196555 0.0124551
204 -0.0578264 -0.0021658
149 0.0514929 0.000311604
125 0.0196958 0.0370245
148 -0.013642 -0.00775825
212 0.0139611 0.0191353
98 -0.0386363 0.0292978
201 0.0253677 -0.0411436
185 0.02115 -0.0111885
147 0.0504892 -0.0333403
206 0.0419957 -0.0225556
188 0.00929312 -0.0421762
211 -0.00935459 -0.0124637
193 0.000579594 0.0057703
176 -0.0174221 0.00470615
220 -0.00924073 -0.0338493
198 -0.0503465 0.0317237
238 -0.0365739 -0.0630471
239 0.0103826 -0.04726
223 0.025889 -0.0287026
183 -0.0164457 0.0776526
225 -0.0331478 -0.0395009
127 0.0634446 0.0234806
146 0.0176248 0.0284063
266 0.00776607 0.03489
208 0.0329382 -0.0398844
190 -0.00383747 -0.00316775
272 -0.0116433 -0.00398295
233 -0.0416264 0.0286698
214 -0.000285355 0.0394573
255 0.000907814 -0.00593373
217 -0.0329366 -0.00558792
200 0.0125372 0.0107654
219 0.00819051 0.0169673
242 -0.00996815 0.00967106
184 -0.035697 0.00669466
165 -0.00688492 -0.00897449
170 -0.0138339 -0.039861
154 0.0361946 0.00895872
237 0.0039782 0.0365476
259 0.0362433 -0.0267681
222 -0.0259777 -0.0214251
157 -0.0488847 -0.0444069
240 0.0592584 -0.0328362
224 -0.00393235 -0.0623624
205 -0.0024253 0.0056937
186 0.0476237 0.0479907
228 0.0391142 0.0744586
236 0.0409368 0.0231426
256 -0.0142129 -0.015238
194 -0.0156227 -0.00938789
257 0.00971378 -0.064809
261 -0.0144586 -0.00438622
260 0.0171677 0.0181152
285 -0.0351176 -0.0453037
263 0.0314137 0.0213102
245 0.0259228 -0.0238886
246 0.0700131 0.0161387
227 -0.0352334 0.0111816
191 -0.0191754 0.0135649
313 0.0069106 0.00528872
218 0.0215588 -0.0165912
279 -0.0126415 -0.000460773
221 0.0119092 -0.0660143
327 -0.0380073 -0.0188218
207 0.0398399 -0.024498
287 -0.0134212 0.00779855
215 0.0372233 0.0546109
254 0.0208868 -0.0308051
280 0.0299949 -0.0272126
241 0.00930812 -0.0166425
202 0.0334473 -0.0179395
243 -0.0101675 -0.0203811
324 0.000291749 -0.0447376
247 -0.0448016 -0.0266396
286 -0.0506865 -0.0142337
312 0.0428505 -0.0287937
252 -0.0199446 -0.0235227
231 0.00168953 0.0144903
232 -0.043454 -0.0177094
258 0.0494297 0.0440883
196 -0.0312575 -0.0332411
337 -0.0112797 -0.0096675
262 0.0466776 -0.0203075
244 0.00259204 0.0174475
267 -0.0428515 -0.0572341
210 0.0182 -0.00220809
187 0.049716 0.009208
248 0.0219461 0.0248877
251 0.0112845 0.00102901
192 0.0436615 0.0030378
297 0.0524991 -0.042184
299 0.0379952 -0.0119594
282 -0.0226184 -0.0371187
203 0.0296205 0.00577829
306 -0.0230416 -0.0461057
284 -0.00350702 -0.0399403
304 0.00278381 0.00891343
264 -0.0173954 -0.00680028
268 -0.0480972 -0.0229784
226 -9.52043e-05 0.02614
249 0.0352612 0.0100775
310 -0.0465226 -0.0203081
275 -0.0183504 0.0255978
293 0.0335847 0.0043465
274 -0.0218072 -0.0406869
318 0.0254672 0.0153194
307 -0.0410696 -0.0240624
250 0.00144912 -0.0465424
309 0.00572941 0.0228281
294 -0.0622307 0.00282481
335 0.036834 0.00461073
253 -0.0505709 0.0130798
296 0.0212151 0.0313978
278 -0.0226226 -0.000744714
397 -0.0228447 0.0223764
336 -0.0331392 -0.00707404
338 0.00583439 -0.00829965
302 0.0142108 -0.0616034
301 0.024695 -0.055201
300 0.0171388 -0.0289371
343 -0.0120319 -0.0358901
345 -0.0753154 -0.0323688
288 -0.0586334 -0.023044
271 -0.0213771 0.0182422
292 -0.0037258 0.0195247
334 -0.0323287 -0.028408
277 -0.0229844 -0.0373894
376 0.0239731 -0.0143906
341 0.0343368 -0.0216105
319 -0.0398259 -0.00298474
398 -0.00516663 0.00576856
289 0.0121073 -0.0609897
273 -0.0475776 0.0223267
311 -0.0190534 0.00194177
276 -0.0336107 -0.00246555
316 -0.0457276 -0.0144091
314 -0.0635592 -0.0205338
321 0.0060668 -0.0445251
283 0.0073967 -0.0159386
339 -0.0239807 0.00665549
346 -0.0121082 0.0474637
326 0.0048444 -0.0168914
367 0.00397671 0.0286675
328 0.0124969 -0.0237051
347 0.0038875 0.0174448
265 0.0374063 0.0155098
330 -0.0361564 0.0327049
269 0.0261367 -0.0297998
329 5.1196e-05 -0.0293603
332 -0.05511 0.0258243
291 -0.0124335 0.0203653
374 0.0118736 -0.00374955
12 0.0096732 0.0271286
315 0.0427026 0.0263966
340 -0.00147881 0.00295344
298 0.0198712 -0.0227273
323 0.0245748 0.0435114
305 -0.00887614 0.000285904
308 0.0452612 -0.0146371
333 -0.0246434 -0.0194704
394 0.0209079 0.0063496
358 0.0508135 0.0127091
281 0.0406887 0.0118404
303 0.018286 -0.00339175
322 0.00628453 -0.0285975
325 -0.0154533 -0.00990261
384 -0.0209304 0.0024552
369 -0.0104031 0.0530332
349 0.0284946 0.00605621
371 -0.0102226 0.00052509
230 -0.0459993 -0.0257175
331 0.0356496 -0.00945029
391 0.0147564 0.0368552
373 0.0408408 0.0183831
295 -0.0434173 0.0270834
375 0.02859 -0.0306881
355 0.000714092 0.019574
360 0.00539893 -0.0507787
377 -0.00702377 -0.011987
342 0.0157906 -0.0341189
31 -0.0309567 -0.00430981
352 -0.00887533 -0.0175907
317 -0.00607317 0.0428417
363 -0.0567454 0.0253602
366 0.0357831 -0.0275476
350 -0.052809 0.0313034
372 0.00352423 -0.0235039
29 -0.00130178 -0.0208903
368 0.000514549 0.00012033
390 0.0262992 -0.0186599
32 0.0613172 -0.00157244
362 0.0382252 0.0124647
20 0.0178663 -0.00882986
344 -0.0299813 0.0143668
348 -0.0360804 -0.03729
270 0.0125588 0.050201
351 0.0160685 0.0400282
392 0.0189249 0.0484933
354 -0.0109627 -0.055283
364 -0.00756286 -0.0363443
385 0.0128573 0.0280156
386 -0.00577052 0.00159486
3 -0.00271388 0.0168447
8 -0.0025774 0.0121423
290 -0.00297939 0.0118811
13 -0.0231971 -0.0468685
357 0.0361836 0.0519609
379 -0.0129619 0.0144752
400 -7.07523e-05 0.00454723
320 -0.07247 -0.04251
365 0.02328 0.042504
7 -0.0280906 0.00524767
389 0.0151099 0.0101171
35 0.0376452 -0.0623389
356 -0.0340029 0.0226516
1 -0.0251614 0.0225921
