ITEM: TIMESTEP
3000000
ITEM: NUMBER OF ATOMS
400
ITEM: BOX BOUNDS pp pp pp
0.0000000000000000e+00 2.0000000000000000e+01
0.0000000000000000e+00 2.0000000000000000e+01
-5.0000000000000000e-01 5.0000000000000000e-01
ITEM: ATOMS id vx vy
17 0.0157394 0.00550512
21 0.0312508 0.00767148
364 0.00923614 -0.0972462
89 -0.0238365 -0.0347014
381 0.0719585 0.0405259
385 -0.0166055 0.0133861
270 -0.0116979 0.0238475
388 0.0496582 0.00767141
29 0.010652 0.064026
53 -0.0392991 0.0198902
93 0.0212439 -0.00214933
37 0.0298535 -0.0105457
1 -0.0391357 0.0253195
378 0.0275983 -0.0379949
38 0.0463283 -0.0352886
64 0.0640936 0.0111385
390 0.0212436 0.0289494
30 -0.0124641 -0.0322409
54 0.00741425 -0.0307777
16 0.00259997 -0.05626
395 0.00650864 -0.0207877
62 0.0273939 -0.00874179
25 -0.0466895 0.0202676
351 -0.0257346 -0.025918
27 -0.0145066 -0.0111141
70 -0.0544381 0.00423547
87 -0.0359023 -0.00284036
39 -0.0201073 0.0772465
40 -0.0461189 -0.0013744
84 -0.00831504 0.0204128
4 0.0169264 0.0416674
48 0.0413766 -0.0269321
399 0.0291433 -0.0266566
23 -0.033059 -0.0537321
60 0.0115246 -0.0146641
61 0.0136045 -0.0276854
45 0.0357532 -0.00334778
9 0.00834409 -0.0286086
5 0.0492825 0.0168328
73 0.0155815 0.0826262
58 -0.0077679 -0.0474227
94 -0.0222425 -0.057748
361 -0.0379371 0.00199775
41 0.0253987 -0.0399449
24 -0.000139182 0.0136468
104 2.6464e-05 -0.0282832
43 0.0372653 -0.041934
42 -0.0305557 -0.0606409
109 -0.00996736 -0.0220238
10 0.0273242 -0.0458493
33 -0.00644095 0.020838
55 0.0178648 -0.00752463
79 0.00910034 -0.000262677
96 -0.00941797 0.0230055
101 0.0140109 -0.030992
22 -0.0110987 -0.00890757
6 -0.0331976 0.000907545
383 -0.0354009 0.0312057
370 0.0214003 0.0265556
69 0.00686595 0.024907
74 -0.0338484 -0.0225608
112 0.0445644 -0.00790749
120 0.0447882 0.00740074
99 -0.0117191 0.0119619
19 0.000199216 -0.00699029
11 0.0424758 -0.0409491
86 0.0169452 -0.0185474
46 -0.0373165 0.00761729
44 -0.0587009 7.93768e-05
28 0.0169512 -0.0073314
49 -0.0380203 0.017449
75 -0.0223099 0.0753508
100 0.0088578 -0.000219868
140 0.05305 -0.000554068
102 0.0848148 0.0234076
26 0.0493692 0.0224445
123 0.0244986 0.0307155
14 0.00961826 -0.00292396
114 -0.0356479 -0.0107855
153 -0.0307311 -0.0121225
72 0.0187878 0.0294533
51 -0.00162798 0.0132257
50 -0.0257366 -0.0224276
56 -0.0410266 0.000904733
36 -0.00624067 0.0235096
396 -0.00172432 -0.0295526
57 -0.0260234 0.0129136
80 0.0298774 0.0362767
117 0.020671 -0.0238309
159 -0.000402295 0.0584624
137 -0.0214618 0.0755667
63 0.0287526 -0.0192702
107 -0.0130466 0.000271427
71 0.0534755 0.0037855
132 0.0247947 -0.00897431
111 -0.0361933 -0.0273211
115 -0.0205912 0.0474236
95 -0.0232028 0.0150877
116 0.0136741 0.0253644
97 0.0358167 -0.0318466
177 0.00899499 0.0449659
160 -0.00576161 -0.0506245
139 -0.0292954 -0.02352
121 -0.049246 -0.0189259
162 -0.00498073 0.0584946
145 -0.0238097 -0.0217408
67 -0.00407205 0.0390048
52 0.0338232 0.0208307
130 0.0266414 0.00628222
110 0.00590182 -0.018355
172 -0.0177263 -0.0287553
76 0.0413952 0.00313372
138 0.00411521 0.0752968
77 0.0418451 0.0163601
178 -0.0353628 -0.0330957
161 -0.0312954 -0.000234115
81 -0.0543296 0.0323862
85 -0.0331098 -0.0482192
88 0.0167543 0.0029157
108 -0.0299244 -0.0194617
151 -0.00560016 0.00743082
150 -0.0328619 0.0235693
78 0.0308625 0.052454
105 -0.016885 -0.0257562
65 -0.0456172 0.0404387
143 -0.0206519 0.0629014
66 -0.0399011 0.00135682
113 0.0446282 0.0143381
91 -0.00187996 0.080633
152 0.0608286 0.0331298
209 -0.0365894 -0.0035369
197 0.0165484 0.0407093
173 -0.0174505 -0.00297202
103 -0.0370263 0.00492871
144 -0.0584252 -0.0273205
122 -0.0490492 0.0164387
201 -0.0232377 0.0211909
83 -0.0254058 -0.00390161
169 -0.0226446 -0.000541845
124 0.0123472 0.0362272
92 0.0218946 -0.0422108
34 0.00778693 0.0520166
155 -0.0333115 -0.00375602
158 -0.0502572 0.0266539
217 -0.0484167 -0.0489647
118 -0.020382 0.011893
179 0.034861 -0.0164117
180 -0.0615919 -0.00071983
141 -0.024844 0.0164492
82 -0.0279442 0.0483213
167 0.0200562 0.0371943
127 0.00988371 -0.0210009
106 -0.0219813 -0.00206232
131 0.0324225 0.0116493
213 -0.00329483 0.00432993
175 0.00409824 0.00341504
174 -0.0431092 -0.053029
126 -0.0117846 -0.0580235
163 0.013729 -0.0189861
129 -0.0238809 -0.0153504
68 0.00716535 -0.0108725
128 0.0156566 0.00515668
147 0.020924 -0.0219636
171 0.0279648 0.00107347
148 0.0451103 -0.0302965
195 0.0469416 -0.000729225
135 -0.0432526 0.082244
59 0.0170142 0.030873
119 -0.0025821 0.0176561
199 -0.055567 -0.0521236
164 -0.00304773 -0.0136045
229 -0.00521814 -0.00753589
206 0.00898483 0.0409833
134 -0.00282826 0.0193508
235 0.015793 0.00799974
259 -0.0491504 -0.0437307
216 -0.0249616 -0.0157247
182 0.0102182 -0.0041297
166 0.0332456 -0.0411875
142 -0.00437268 -0.0304183
170 -0.0242759 0.0170135
208 0.0515458 -0.0288995
133 0.000367011 -0.00277541
234 -0.00101646 0.0119816
279 0.00540011 -0.0273934
136 -0.0128219 0.0537732
238 -0.00377833 0.0267535
181 -0.0189531 -0.015517
223 -0.0153706 0.0282315
185 -0.00420614 -0.00260563
204 -0.00320918 -0.00337895
189 -0.0124978 -0.00758216
272 -0.00728134 0.00272816
255 -0.0480962 -0.0208247
156 0.0105119 0.00334262
194 0.0380568 0.00622443
98 -0.0624873 0.0106641
198 0.0215544 -0.00394166
239 0.00703318 0.0267261
240 0.0095903 -0.0195834
165 0.00581952 -0.0641589
219 0.0136506 -0.0035748
183 -0.0193102 0.0177948
149 0.0133333 -0.000942444
186 0.0254084 -0.0219678
190 0.0284099 0.043995
214 0.0491498 0.0273069
157 0.0803869 -0.0128146
263 0.056451 -0.00767691
184 0.010736 0.0320272
225 0.0333625 0.0531997
146 -0.0569589 0.0175479
168 -0.0201807 -0.00155054
211 0.0100235 -0.0137826
218 0.00518473 -0.0448905
313 0.00393112 0.00367589
280 -0.0212678 0.00745083
297 0.0227004 0.0566333
200 -0.00189687 0.0176011
242 0.0253218 -0.0119578
261 0.00851334 -0.017987
285 0.0237006 0.00293258
221 0.0484329 0.0164603
233 -0.0205661 -0.0447272
237 0.00201857 0.0499977
274 0.029656 0.0391978
154 0.00232024 -0.0115585
220 -0.010836 -0.0414847
260 -0.000164925 -0.0120616
284 0.0241882 -0.0321955
327 -0.0389249 -0.0443738
224 -0.00475457 -0.0206837
287 0.0184615 0.011157
125 -0.0293607 0.0496446
188 0.0123011 -0.0857096
246 -0.0180584 -0.0673736
212 -0.00618399 0.00320329
275 0.0344111 -0.054309
193 -0.0441986 0.0879346
222 0.0424429 0.0185175
299 0.0266024 0.00247066
282 -0.00224954 0.023423
266 -0.0392851 0.0165241
286 0.0484833 0.0216737
228 0.00133888 0.0253328
227 -0.031283 0.00075186
191 0.0140676 0.00448795
231 0.0152942 -0.0533024
236 0.0152867 -0.0204506
256 0.0280771 0.0495843
397 0.0179184 -0.0110744
257 0.00311946 0.027219
241 0.012521 0.0149433
301 0.00359625 -0.0219096
324 0.00333407 0.0144791
207 -0.0355226 0.0719962
205 -0.00636425 0.00768588
249 -0.0010567 -0.0370193
310 0.028853 -0.0389853
309 0.034974 0.0265345
210 -0.0238609 -0.0213677
176 -0.0424024 0.00287262
276 -0.0147053 -0.0241341
296 -0.012148 -0.0158276
278 -0.000703002 0.00129999
196 -0.00421033 0.0123167
360 0.0304256 0.024348
358 -0.0112485 -0.0101463
202 0.0167601 -0.0285867
243 0.0344548 -0.0386224
244 -0.0594357 0.00364545
306 -0.0209942 0.0670796
289 0.0442426 0.0140393
187 -0.0375463 0.0492371
273 -0.0107891 0.0117014
232 -0.0252677 -0.0132151
252 0.0105402 0.0407712
293 0.0201399 -0.0556996
215 0.0301657 0.0279905
338 -0.0610831 -0.00484101
337 0.0220153 -0.0259709
302 0.012469 -0.000379904
262 -0.00524122 0.0116553
343 -0.022757 0.0142877
203 -0.0138737 -0.00601237
304 -0.0441282 -0.0407208
226 -0.0167339 0.0335885
267 0.0108854 0.0740858
247 0.0465682 0.0727373
265 0.00638282 -0.0145141
292 -0.000912185 -0.0239319
335 -0.0172177 0.00382738
312 -0.0184419 -0.00289689
253 0.0563032 -0.0398559
373 -0.00629545 -0.057449
192 0.0243816 0.0223663
321 0.0465904 -0.0332343
323 -0.028204 -0.0875674
264 -0.0164831 0.0411311
245 0.0335544 0.0669133
250 0.00753019 -0.00161502
294 0.0248812 0.0505428
334 -0.0267767 -0.00375624
311 0.0377327 -0.0185362
374 -0.00141937 -0.0112436
251 -0.00758198 -0.0116481
341 0.0115895 0.00128347
319 -0.078115 0.0188687
254 -0.0114974 0.0326655
318 0.0261149 -0.0259556
326 -0.00758208 -0.00585478
288 -0.0433259 0.000865618
372 -0.0167577 -0.0175337
269 -0.0330787 0.00228074
332 -0.033732 -0.00988428
291 -0.0622039 0.00408757
258 -0.0576958 0.0358826
336 -0.012767 -0.0110652
398 -0.0353633 0.0329472
300 0.0260749 0.0133422
303 0.04966 0.0239721
328 0.0440093 0.0243285
268 -0.0364446 -0.00438045
349 0.0387267 -0.0551252
352 0.0152728 -0.0738663
277 0.0178821 -0.00695895
314 0.0534976 0.0201067
379 -0.0221307 0.0114937
394 0.0442244 0.0345111
307 -0.0272248 0.0044223
322 -0.0608538 0.00773143
367 -0.010338 0.0116909
331 -0.00967286 -0.00970594
295 0.0035267 -0.0429196
375 -0.00285067 -0.0347515
320 -0.0833926 -0.0698263
283 -0.0213502 -0.00308881
298 0.0644338 -0.00521499
347 0.00630932 -0.0174173
330 0.0445089 -0.00458363
333 -0.0153365 0.0305547
371 -0.00524867 -0.0333178
248 0.00559834 -0.0115239
12 0.0328308 0.00949146
376 0.0672416 0.00791414
363 -0.0403625 -0.00196726
340 -0.0433926 0.0179681
342 -0.0278346 -0.00543033
345 0.00937586 0.0251278
346 0.00977955 0.0230408
325 0.0105317 0.0506173
305 -0.0086848 0.014996
271 -0.00413559 0.0272176
3 -0.00248044 -0.0630505
308 -0.0354618 -0.0281117
329 0.0313226 0.0254731
32 -0.0264112 -0.00087891
13 -0.0202153 -0.0277556
353 -0.0152137 -0.00668898
355 -0.0475687 -0.0635811
315 0.027436 0.0402671
377 -0.00786039 0.0209541
387 0.0359414 -0.101343
384 0.00624 -0.0113367
366 0.00918644 0.00505645
369 0.00504233 -0.00726691
393 0.0683646 -0.0152638
380 -0.0683766 -0.0634804
362 -0.00526616 -0.0511483
350 0.0559863 -0.0155981
339 0.0572181 0.0311451
348 0.0210772 0.0528139
230 -0.0318962 0.028105
31 -0.0136387 0.0162288
290 -0.0316572 -0.0232287
354 -0.00979213 0.0508435
357 -0.0166029 -0.0355324
281 0.00561767 0.0599647
20 -0.0512479 -0.00891952
344 0.0200005 -0.0105471
365 0.0466418 0.0537321
47 0.00996077 -0.065573
356 -0.00105341 0.00164818
317 0.0230595 -0.0245626
400 -0.0443036 -0.00929934
382 -0.0415102 9.81782e-05
2 -0.0364509 -0.039068
386 0.0469856 0.0605715
8 0.0136608 0.00647187
35 -0.0641887 0.0025421
15 -0.0178386 0.00754197
18 0.0040609 0.00437215
7 -0.0416457 -0.0402006
389 -0.0321837 -0.0288392
90 0.0273757 0.0312383
368 -0.03156 -0.0263123
391 0.0156541 -0.0189707
392 0.0308068 -0.0290422
316 0.00597899 -0.000975831
359 -0.0165401 0.00841957
