ITEM: TIMESTEP
4000000
ITEM: NUMBER OF ATOMS
400
ITEM: BOX BOUNDS pp pp pp
0.0000000000000000e+00 2.0000000000000000e+01
0.0000000000000000e+00 2.0000000000000000e+01
-5.0000000000000000e-01 5.0000000000000000e-01
ITEM: ATOMS id vx vy
101 -0.0535545 -0.0724214
38 -0.0145519 0.0566094
61 -0.0262779 -0.0106108
89 0.00405362 -0.0122004
365 0.0221206 -0.0217555
42 -0.0161335 -0.0279086
390 -0.0254947 -0.0125683
270 0.034552 -0.0124813
109 0.00487306 -0.0651278
93 -0.0513974 -0.0053773
30 -0.0225274 -0.0202128
391 0.0394495 -0.084442
359 0.0324027 -0.0527986
55 -0.0648468 -0.0401492
24 -0.0141048 -0.0483189
45 -0.0409394 -0.0118075
385 0.0314529 0.0257012
381 -0.00634914 -0.0166432
70 -0.0525085 0.000424661
74 0.0117454 -0.0336288
399 0.0112783 -0.0258502
4 -0.0696816 0.0162648
140 -0.039274 -0.0425197
351 -0.0341139 0.00466947
87 0.00874231 -0.013994
94 0.0630376 0.0302959
33 0.0391862 -0.0181177
395 -0.0699152 0.00555814
17 -0.00790983 -0.00608901
378 -0.0276251 -0.0253583
159 -0.0247927 -0.0178278
104 0.0485482 -0.0137449
10 -0.0326985 -0.0570502
27 -0.0134841 -0.0157201
48 -0.00844042 -0.0021169
356 0.000936985 -0.00959197
79 -0.00229655 -0.0354736
84 0.0490154 0.0421472
99 0.00196245 0.000836589
9 -0.00656151 0.0010984
7 0.0459826 0.0472274
58 0.0124355 -0.038702
370 0.03821 -0.00752869
153 -0.0541066 -0.0356849
1 0.0193256 0.0230599
37 0.0243572 -0.0408096
396 0.0271732 0.00285445
57 -0.00175349 -0.112179
361 -0.0663425 0.0185083
19 -0.00693545 0.0482285
25 -0.0519223 0.0262336
43 0.034913 -0.00235735
49 -0.025215 0.0419895
5 -0.0174958 -0.0161386
73 -0.00606706 0.0491929
14 -0.00620716 0.0158659
110 0.0331907 0.0164868
69 0.0432041 0.0391991
120 0.0418037 -0.0142319
117 0.0214923 0.0036555
102 0.0210538 -0.0050846
28 0.00287115 -0.0103462
71 0.0165127 -0.012383
75 -0.0492586 0.0202174
114 -0.0310326 0.0198293
56 0.00705504 0.0210235
316 -0.0301177 0.0454686
96 0.0159373 -0.0541817
177 0.0685393 0.027385
22 0.00735671 -0.0189715
162 0.00146654 0.012004
11 -1.8649e-05 -0.032813
383 -0.00737427 0.0064904
46 -0.0665232 0.0078075
6 0.0571486 0.0221495
130 -0.0393888 -0.0104063
76 0.015761 0.00879235
39 0.0177616 0.0500278
80 0.00686206 -0.0499044
86 0.00793485 0.0388885
107 0.00857672 -0.00636146
132 -0.0101411 -0.0295141
23 0.0104641 0.0226671
36 -0.0265083 -0.0581563
161 0.00325805 -0.0357791
26 -0.013916 -0.0221188
44 -0.0302169 -0.00664355
106 -0.0388422 0.00845343
151 -0.0348485 -0.0158951
51 -0.0138435 0.0312728
50 0.0452637 -0.0235257
138 0.0293971 -0.0111124
112 -0.0267042 0.0114144
259 0.0549012 -0.0369131
97 0.0123674 -0.0264013
122 -0.030975 -0.0185975
160 -0.0157637 -0.0975857
201 0.0764702 0.0133638
121 0.0332775 -0.0400062
100 0.0269104 0.059828
65 0.0159347 -0.0562276
63 -0.0121825 0.000815171
123 0.000213544 0.0109865
172 -0.0412382 0.0106059
72 0.0061428 0.00675217
174 -0.000804931 -0.0220486
116 0.00830531 -0.0315094
131 -0.0427106 -0.0111697
92 -0.000158216 0.0233919
111 -0.0165853 0.00374897
115 0.0321091 0.0142131
139 -0.0243579 0.0240253
137 -0.00279423 -0.0182268
127 -0.00346198 -0.00451731
145 0.00411375 0.0471407
163 -0.00574221 -0.0286771
67 -0.00572035 0.0248256
143 -0.00575895 0.00123148
85 -0.00722188 -0.0162699
113 0.0181584 0.0313848
209 0.00615132 -0.0290748
150 0.0211377 0.0200952
175 -0.0237798 0.0539637
197 -0.0127495 -0.0732376
95 0.0227886 0.0590697
77 -0.0359869 -0.0131003
217 -0.0501639 -0.00985087
105 0.0486678 -0.00769871
141 -0.0105095 0.0356442
88 0.0760572 0.0256336
108 -0.0251566 0.0450415
213 -0.0201963 -0.0220765
91 0.0419279 -0.0360639
206 0.00117707 -0.031454
173 0.0401962 0.0322051
78 -0.0550089 0.0245862
178 -0.0373828 -0.00171039
223 0.0491226 -0.00727927
81 -0.0223108 0.0667542
182 0.0204486 0.00342945
185 -0.060354 0.0116096
124 -0.0205047 0.0256112
171 -0.0148635 -0.0234254
152 -0.0332704 -0.00700766
233 -0.00835938 0.0399076
158 0.0314741 -0.0421665
279 0.05754 -0.025945
179 -0.0872257 0.0346354
165 -0.0107412 -0.0114815
167 0.0250618 -0.00897457
68 0.0255362 -0.0114199
34 -0.0145944 0.0381812
133 -0.0635576 -0.0259543
155 -0.0547714 -0.0472568
234 0.020819 -0.0230379
103 0.00264664 0.0346741
126 -0.0312746 -0.00582651
239 -0.0539383 -0.0139938
219 0.0537829 -0.00115815
166 -0.0180106 0.0167354
52 -0.0521475 0.0722947
147 -0.00296745 -0.0263743
170 0.0416022 -0.0142164
255 -0.0393014 -0.010859
216 0.00497646 -0.000582078
119 0.00265574 -0.0364612
180 0.0160032 0.0220443
82 0.0159262 0.00240361
157 0.0302249 -0.011616
83 0.0345947 -0.0506562
221 -0.0160781 -0.0315437
164 -0.0169361 -0.0156286
169 -0.0120309 0.012431
66 0.0323318 -0.0368529
186 0.029998 -0.00503415
134 0.00773939 -0.0456824
235 -0.0203624 -0.00109472
136 -0.0499676 -0.0141651
181 -0.0125754 -0.0315187
144 -0.0119076 0.0288663
199 -0.0174028 0.052257
183 -0.00259711 -0.0220524
142 0.0258778 -0.00715834
148 0.00726279 0.0580534
195 -0.00591241 -0.0111631
194 0.00316211 -0.00978039
98 0.0253484 -0.0698174
324 0.0352687 -0.00150034
184 -0.0130118 -0.0208759
227 -0.0388666 -0.00246534
272 0.0127578 -0.0177812
208 -0.0201368 0.000606803
135 0.0016056 0.0202821
218 -0.01809 -0.000260148
118 -0.00428623 -0.00391217
198 -0.00371828 0.0474073
241 0.00676616 0.0752316
202 -0.00680035 -0.0852833
301 0.0228178 -0.000526771
285 0.0260965 0.0495271
284 -0.024418 0.0527047
129 0.0181147 0.0199241
189 0.00488031 -0.0173058
128 0.0641726 0.0605165
229 0.0260518 0.0550961
188 -0.034034 -0.0194582
211 -0.00647965 0.013561
212 -0.00692856 -0.0355178
190 0.0294452 0.0122206
275 0.019418 -0.0033564
313 0.0144559 -0.036195
238 0.0143648 0.00499493
240 -0.0397177 0.0293718
225 -0.02091 -0.0148655
146 0.0506597 0.0297668
287 -0.038188 -0.0040304
252 -0.0581365 -0.00801986
237 -0.0351417 0.0563901
156 -0.01634 0.0158524
397 -0.0137924 0.00908965
59 -0.0100669 0.0307932
299 0.0302682 -0.0161924
358 -0.00660895 -0.0396705
242 0.0321218 0.0513075
263 -0.031802 -0.048522
327 -0.0448497 0.0365479
282 -0.0107209 0.016021
125 -0.0670529 0.00314024
310 0.0192748 -0.063289
149 0.0911004 0.0285444
286 0.0295343 -0.0144305
193 0.00183899 0.0342017
154 0.0289707 -0.0241103
297 -0.0288798 0.0201895
200 0.0149594 -0.0171484
262 -0.0172097 0.0294587
261 -0.0199663 0.048351
224 0.0275408 -0.0107169
168 0.00550646 0.0375706
309 0.0223212 -0.0463331
176 -0.00582575 -0.0510114
214 -0.0312067 0.015397
196 0.00328033 0.0247277
220 0.0245449 0.0531143
215 -0.025128 0.0259363
260 0.0370384 0.0263365
302 -0.013484 0.015148
318 -0.00881811 0.00689728
244 -0.00445386 -0.0168588
204 -0.00103605 0.0197884
210 -0.0167634 0.0433243
191 0.0341109 -0.00692013
231 -0.0149879 -0.0141637
256 0.0173937 -0.0832369
243 0.0154633 0.0367514
323 -0.001755 -0.0345657
304 0.0242828 -0.0187617
249 0.0247031 0.047059
265 0.00813162 -0.0175735
246 0.0248915 0.0439495
232 -0.0390862 -0.00987747
296 0.00712142 -0.0442018
276 0.0183462 0.0117868
338 0.0244252 -0.0169208
192 0.0126028 -0.0387118
222 0.0386196 0.067073
280 0.0296888 0.00988999
266 -0.0233567 -0.000684406
247 -0.0301129 0.00101339
228 -0.000508844 -0.0219431
273 0.0224428 0.0030658
335 0.0131333 -0.0187062
293 -0.0248923 0.0164008
319 -0.0293452 0.0289574
236 -0.0491241 -0.0335545
336 -0.00569327 0.0155409
277 -0.00319247 -0.0582118
254 0.0591276 -0.0840673
257 0.0558646 0.0304754
203 0.00569365 -0.0286961
268 -0.0152932 0.034756
205 -0.0479743 0.0156751
207 0.0180274 0.0600376
289 0.00381905 -0.0276247
187 0.00782683 0.0109828
334 -0.0328375 -0.00104964
312 0.0363404 0.0208224
274 -0.00066868 0.0349247
394 -0.031845 -0.00252443
337 0.0216615 0.0266076
321 -0.0219362 0.0109769
288 -0.0101981 -0.0206985
267 -0.00411293 0.00358853
292 -0.040678 0.0511927
248 0.0208663 0.0294434
352 -0.0425888 0.00670796
311 0.00769367 -0.00402814
253 -0.0575436 0.0386297
373 0.0460038 0.0196758
251 -0.0350598 -0.00995898
278 0.0101228 -0.0064306
307 -0.0347438 -0.0211588
300 1.13898e-05 0.0180981
347 -0.0125647 -0.0192219
264 -0.010938 -0.0129289
269 -0.0459467 0.0322275
294 -0.0239872 -0.00767221
374 -0.0215792 -0.0104815
314 0.000517186 0.00494058
360 0.0158746 0.0415263
367 -0.0286528 0.0118389
226 0.00937749 0.0412794
384 0.0751388 0.0264452
372 -0.0465265 -0.0453703
245 -0.0284797 0.0308764
371 -0.00917981 0.0021873
250 0.0412526 0.0213147
332 -0.0118769 -0.0353777
32 -0.0253795 -0.00189771
291 0.00529313 -0.020081
13 0.0143901 -0.0206912
331 0.0297334 0.0634693
357 -0.0323959 0.0176195
341 0.0127865 0.00598071
320 -0.0358941 0.0238582
398 -0.00152097 0.0120548
342 0.0460918 0.0307635
363 0.033955 -0.0576806
343 -0.0460104 0.0197952
326 -0.0477254 0.0431012
306 -0.00983093 -0.00888696
349 -0.0308391 0.0527797
386 0.057653 -0.0333282
31 0.0142474 0.0017069
388 0.0145897 -0.0117524
295 0.00892441 -0.0175076
355 0.00738843 0.0210783
12 0.0467191 -0.00262418
303 0.0193403 -0.0044311
345 -0.0418117 0.00217543
387 0.033083 0.0354504
328 -0.0279871 0.00135062
348 -0.0249959 -0.0206658
330 -0.0210976 0.00563753
308 -0.00433363 -0.0262582
290 -0.00681838 -0.0197279
258 0.0121593 0.0289559
375 -0.0429044 0.122571
393 0.0368462 0.000168581
379 0.00687469 0.0172187
364 0.0225599 0.0375421
2 -0.00988414 0.0147903
322 -0.00205941 0.0111968
230 0.0250218 0.00582951
333 0.0109945 0.041426
3 0.0132883 -0.0297729
353 -0.00877114 0.00648115
283 0.0657167 0.0366859
41 -0.0149209 -0.0511729
346 0.0560274 0.01564
305 -0.00495121 0.00320344
47 0.00920596 0.0305837
271 -0.0452696 0.0297716
369 -0.0257568 0.00939258
329 -0.0237237 0.00544868
368 0.00499717 0.00210901
354 -0.0236292 -0.0265935
35 0.0129066 0.0191574
16 -0.00994554 -0.0413061
392 -0.00900799 0.0186456
340 -0.0204269 -0.0208267
362 0.0570932 0.042759
298 -0.0507015 0.0492564
62 -0.00926472 0.0188012
344 0.00336591 0.000153538
350 -0.015708 -0.00708269
366 -0.00961614 -0.00893556
15 -0.0372232 0.0623652
317 -0.0185756 0.0187324
315 0.0593554 0.0436181
20 -0.003002 0.00998939
325 -0.00085659 -0.00661913
389 0.0152948 0.00478151
53 0.0400459 -0.118999
29 0.00404055 -0.0245055
54 -0.0186773 0.0222709
8 0.0125597 -0.0943251
380 -0.058353 0.0526835
281 -0.0572726 -0.0680265
21 -0.00647958 -0.0516021
382 0.047759 0.00950949
64 -0.0530082 0.00885626
339 0.0388465 -0.0127526
90 -0.0433317 0.0189112
400 -0.0822742 0.000671698
376 -0.00512577 0.0205626
377 -0.0309197 -0.0423393
40 -0.0179961 -0.0656992
60 0.0141453 -0.0377382
18 -0.0373683 0.0344016
