ITEM: TIMESTEP
5000000
ITEM: NUMBER OF ATOMS
400
ITEM: BOX BOUNDS pp pp pp
0.0000000000000000e+00 2.0000000000000000e+01
0.0000000000000000e+00 2.0000000000000000e+01
-5.0000000000000000e-01 5.0000000000000000e-01
ITEM: ATOMS id vx vy
351 0.0598812 0.00546975
58 -0.00650341 -0.0304171
54 0.00620435 -0.0537445
30 0.0363169 0.0238858
395 0.00451136 -0.0155413
57 0.00220976 -0.0385873
17 0.00144844 -0.00696707
62 -0.00226283 -0.025336
281 -0.0246389 0.00245567
11 0.0166609 -0.0455857
140 -0.0357111 0.00254814
381 -0.0634974 0.00965889
271 0.031167 0.0371708
90 -0.0135203 -0.00655815
87 0.0181852 0.0034597
55 -0.0716558 0.00475388
24 -0.00375571 0.0338806
38 -0.0199277 0.0205227
45 -0.0278392 0.00141963
9 -0.0314341 0.0367935
43 -0.0437719 -0.0238985
5 0.0383505 -0.00734125
8 -0.0308045 0.0783931
79 -0.0509987 0.0286425
39 -0.00822385 -0.0527961
19 -0.0776227 0.0227339
378 0.00915512 -0.0178699
120 0.0215653 0.027093
383 -0.0261994 -0.00866635
385 -0.0370412 -0.0496167
270 -0.0525164 0.0601168
10 -0.000584046 0.0145543
70 0.0100644 0.00239128
48 -0.0215124 -0.0471141
69 -0.0199549 0.00415477
4 0.0252499 -0.00687548
104 0.0148228 5.0858e-05
102 -0.0193958 0.0231886
71 -0.0234842 0.0259997
73 -0.0437209 0.00547185
160 -0.00639864 -0.00100412
22 0.014244 -0.0490404
28 -0.0247494 0.00830426
27 -0.0718001 -0.0233103
391 -0.0305832 -0.0379465
153 0.0377388 0.0201558
1 0.0369628 -0.000461645
361 -0.057856 -0.0242281
396 -0.0244337 0.060848
122 -0.0444665 -0.0276072
159 0.00479195 0.0229063
46 0.0288108 -0.0205751
44 -0.0552019 -0.00696315
130 -0.0199496 -0.00968835
110 -0.0642215 0.0256641
23 0.0181386 -0.00742849
37 -0.00135447 -0.0207585
80 0.0145193 0.0489694
259 -0.0892708 -0.0183631
99 -0.00632609 -0.000919657
201 -0.0649407 -0.0192944
127 0.0128241 -0.00556408
6 -0.00741647 -0.0665239
49 0.0507513 0.00184611
7 0.0566368 0.0544792
114 -0.0161391 -0.0429152
14 0.0345218 0.00352411
370 0.0498117 -0.0306838
132 -0.0542986 0.0356437
356 -0.0258229 -0.00246557
117 -0.00467623 -0.00157442
86 -0.0284075 0.0181341
26 0.0288548 0.02684
75 -0.0102287 0.0253323
91 0.0348852 0.0128997
72 -0.00645175 0.0554557
138 0.018926 -0.0759031
112 0.013953 0.017125
177 -0.00850006 -0.0289475
139 0.00910076 0.0126208
121 0.00451741 0.000475649
161 0.00938664 0.0108649
145 0.01096 -0.0151805
63 -0.0868839 -0.00696385
106 -0.0681339 -0.0142122
107 -0.0364048 0.0314152
151 0.0397883 0.00892911
172 0.0166112 -0.0286358
36 -0.00216996 -0.00542486
97 -0.0208395 0.00464112
223 -0.0202814 -0.0146645
163 0.0119812 -0.0461252
123 0.0292977 -0.0228093
68 -0.00470909 -0.0511451
206 0.00981464 -0.00606294
56 0.00102913 0.00537934
316 -0.0171151 0.000254062
82 -0.048253 -0.00637084
25 0.0386095 -0.0143468
85 0.00594807 0.0231152
131 0.0405523 -0.0454146
209 0.0347573 0.00453788
150 0.0747914 0.0333972
197 0.00769532 0.0597046
174 -0.00990718 0.0336271
137 0.00590942 0.0452862
162 -0.0317023 0.0601354
105 0.0240341 0.0199201
65 -0.037168 -0.0274588
143 0.00265673 -0.0760318
108 -0.0189837 -0.0222962
51 -0.0066477 0.00857393
95 -0.0559735 -0.0016267
178 -0.016442 -0.0240091
239 -0.0042735 -0.037491
81 -0.00527005 0.0238762
219 -0.0338231 -0.0294681
167 -0.0124553 -0.0559154
88 0.0144985 -0.0106287
171 0.0167709 0.00649762
52 -0.019921 -0.072025
152 -0.003269 -0.0173732
133 0.00751512 0.00190029
113 -0.00241178 0.0311936
115 -0.0211548 0.0278354
50 -0.00448893 0.0109018
116 0.0231467 -0.000644735
179 0.0136975 -0.0544773
119 0.0464199 -0.0302925
182 0.0063771 6.31645e-05
213 -0.0209335 -0.00543396
186 -0.0185563 -0.062288
76 -0.0254024 -0.00358329
158 0.0251565 -0.0115046
77 -0.0120236 0.0045881
78 -0.00719443 -0.00873717
202 -0.0169077 0.00583395
141 -0.0318698 0.011487
221 0.0121274 0.0282386
67 -0.0474408 -0.0217565
124 -0.0351932 0.00908506
227 -0.00768828 0.00737938
92 -0.0177463 0.0103591
136 -0.0133385 -0.0125782
217 0.0203624 0.00902836
235 0.0200889 -0.00934905
83 -0.0462343 -0.00495407
185 0.0145791 -0.00205775
100 -0.0365407 -0.0342679
66 -0.012859 0.00415262
147 0.0133321 -0.0148813
111 0.0342833 0.00755686
195 -0.043576 -0.000901422
208 0.000335423 -0.031895
233 -0.0326306 0.0787107
218 -0.00782545 0.0224545
103 0.0541963 0.0111738
157 -0.0373808 -0.0228083
301 -0.00197192 -0.0136099
164 0.000925935 0.0211553
142 0.0256695 0.00375476
170 -0.0139661 0.0328357
255 -0.0704208 0.0621632
175 0.0596652 0.0150358
173 -0.00394075 0.0933473
154 0.0659551 -0.0119715
234 0.0441969 0.016548
169 -0.0407785 -0.0284145
183 -0.0146959 0.00108828
272 0.0375171 0.00942932
155 -0.0185311 0.0051048
148 -0.0210396 0.000266642
134 -0.0031083 -0.0193013
196 -0.00379877 0.00567868
144 0.0326283 -0.0138357
118 0.0910022 -0.0127252
285 -0.00516093 -0.0468403
98 -0.0663216 0.0113136
284 0.0669085 0.0151861
184 -0.0144454 -0.0464145
146 0.0482255 0.00120457
189 -0.0333892 0.00829745
211 0.0181539 -0.0251702
34 -0.00404244 0.00530292
190 -0.00669633 0.00399335
237 0.0225119 0.00646065
216 -0.0320372 -0.0329412
181 0.0239916 0.0321952
279 0.0424827 0.0155319
254 0.0429924 0.00938447
165 0.0486528 0.00808264
199 0.00333726 0.0448195
324 -0.0138372 0.0463472
128 0.03435 -0.0181121
287 -0.00591832 0.0445549
252 -0.00814151 -0.020052
135 0.0337022 0.00882344
192 0.0227746 -0.0351385
126 -0.0170317 -0.0116267
240 0.029724 0.0175581
166 0.00485373 -0.0347364
323 -0.0164007 0.0220395
129 -0.0202663 -0.0281672
188 -0.0598485 0.0492023
212 -0.0150727 0.0196267
176 0.0148789 -0.0404908
214 0.0105741 -0.0187469
194 -0.0506732 -0.00786717
198 -0.0311293 0.0141492
238 0.0539862 0.0104455
299 0.0328293 -0.00939664
125 -0.0465593 -0.0354897
304 -0.029043 0.00748755
310 0.0198928 0.00696688
149 0.0219561 -0.0250788
273 -0.0315709 0.030811
229 0.0549386 0.00142223
156 -0.0175847 0.0235069
275 0.0321496 -0.0380879
200 0.0130851 0.0220918
260 0.0276718 -0.0324674
358 0.00643344 -0.00681426
263 0.0430359 0.0521466
225 -0.0147729 0.0255703
265 -0.0256804 -0.0301996
309 -0.0139833 -0.0189075
335 -0.0500649 -0.0260578
215 0.0305308 -0.04445
231 0.044505 0.0173087
59 -0.00946373 -0.0036573
297 0.0218336 -0.0359419
313 0.063142 -0.0163131
256 0.00838078 -0.00817775
180 0.0346797 0.00708751
241 0.0485926 -0.000840874
262 0.00172779 0.0409962
247 0.0164019 -0.00205278
168 -0.00275423 0.0371691
204 -0.00339188 -0.0688453
193 0.0155701 -0.0139217
286 -0.0624249 0.00279281
397 -0.0100227 0.0363432
307 -0.039666 -0.0504547
394 0.0254124 -0.0130644
244 -0.0229809 0.0266825
203 0.00684305 -0.0202787
266 0.0810444 -0.0466544
289 0.00911593 -0.00914954
228 0.00668812 -0.00759631
32 0.00948425 -0.0403453
191 -0.0432417 -0.018363
236 0.0426344 0.00164103
274 4.50475e-05 -0.00756777
341 -0.0324113 0.00752699
277 -0.0108863 -0.0206976
222 -0.0102108 0.0662597
306 0.0732668 -0.0239587
327 -0.0159415 -0.00732741
282 0.0322276 0.0178896
224 -0.0181112 0.00673456
292 0.0264976 0.015092
334 -0.00685906 -0.0281563
296 0.0131142 0.00351642
314 0.0574232 0.000656618
242 -0.0310499 0.0158976
261 0.0116302 0.0232185
243 0.0528323 0.0097738
207 0.0222985 -0.000678581
226 0.0570176 -0.0141523
294 -0.00834662 -0.010152
246 0.0654885 -0.0358511
187 -0.0207185 -0.0316352
312 0.0442518 0.0295683
232 0.0108179 0.0112145
251 0.00290502 -0.0745338
293 0.0365685 -0.0375953
220 0.00389683 -0.00914106
276 0.0828612 -0.0198995
302 -0.0192012 -0.0175993
337 0.0483706 0.00288053
318 -0.0292997 -0.0282908
264 0.0178816 -0.0282667
367 0.0174645 -0.0319799
250 -0.0113784 -0.0836842
352 0.0169445 0.0895977
210 -0.0293446 0.0295533
3 0.0215178 -0.000779694
319 0.0616197 0.0333108
398 -0.0330821 -0.0400908
300 -0.0610196 -0.0331986
268 -0.0498177 -0.0152609
249 0.0391014 0.034908
374 -0.0048799 0.0425553
253 0.0118118 0.0138596
278 0.0263861 0.0205428
258 -0.0375778 0.0128974
320 -0.0321304 0.0361026
280 -0.0421643 0.0808872
363 0.00809294 -0.0210142
321 0.0125212 -0.0015212
288 0.0126654 -0.0121978
205 0.0138942 0.00634931
364 -0.00907428 -0.0215325
2 0.0174503 -0.00508216
322 -0.0318652 -0.0225019
267 0.0375841 0.00128711
248 0.0177349 0.0316018
388 -0.00734705 -0.0294088
311 -0.0188554 -0.0184572
295 0.0785812 -0.00300886
338 0.0628679 -0.0490237
393 0.0216366 0.020581
257 -0.0510569 0.00919115
343 0.021182 0.00360221
347 -0.0250418 0.00252515
344 -0.0558827 -0.0068994
369 -0.0173762 0.00125086
371 -0.0411593 0.0249868
291 -0.0176962 0.0177986
290 -0.0335479 -0.000960034
373 -0.0376124 -0.0589609
13 -0.0289854 -0.0197032
357 0.0347824 0.00314569
336 0.00772167 0.00686901
35 0.0116899 0.0325176
345 -0.00117574 0.0485885
360 0.032227 -0.037825
326 -0.00599156 -0.0024771
21 -0.0273162 0.0267557
384 0.00997445 -0.00860052
269 -0.0119573 -0.00239573
386 -0.0377405 -0.0335044
308 -0.03317 -0.0129152
16 -0.0082133 -0.0175153
355 -0.0180581 0.00854352
359 0.0625889 0.00011215
380 0.0621262 0.0357832
47 -0.0225006 0.0426118
372 0.0218871 0.0257448
333 -0.0343177 -0.0302282
31 -0.00775597 0.0438728
354 0.034124 -0.0381927
353 0.0073093 -0.0571764
375 -0.0208366 -0.0698191
12 -0.0308269 0.0293061
342 -0.0758259 0.0481352
60 0.00310547 -0.00333768
387 -0.0224192 -0.0580777
382 0.0140141 -0.0358194
325 0.034704 0.0387901
93 -0.0315326 -0.0111823
332 0.0047674 0.0355126
329 -0.0112596 0.00442061
53 -0.0747491 0.0186931
368 0.0163347 0.0207326
400 0.00233958 0.0104063
331 0.0331903 -0.0226063
340 -0.0390347 -0.0179024
315 -0.00454072 0.00463892
379 -0.0394951 -0.0298885
41 0.024616 -0.0731278
346 0.0102557 0.0239417
330 -0.0154197 0.0291729
348 0.0248419 0.00217954
245 0.00369929 0.00845226
29 0.0170017 -0.0292194
15 0.032474 -0.0204665
392 -0.0096642 -0.0366376
101 -0.0137139 -0.00778368
40 -0.0125325 -0.0119812
303 -0.00643006 0.00955968
362 0.0585832 0.026113
298 0.0724629 -0.0538764
339 -0.0429385 0.0481783
365 -0.0784112 -0.0185345
349 0.00971479 -0.027105
74 -0.00223 -0.0321616
33 -0.0193503 -0.0534437
376 0.058846 -0.00817665
377 -0.0402093 0.00106553
399 -0.00617267 -0.0114359
84 0.0388104 -0.0180837
61 -0.017452 -0.0197636
283 3.51609e-05 -0.0192391
20 0.0440507 0.0339091
328 -0.0142199 0.056395
64 0.0220457 -0.0247415
89 0.025732 0.00320465
350 0.000384424 -0.0494003
305 0.041131 0.0187418
390 0.00344044 -0.0218172
42 -0.00296042 0.0459215
230 0.0186769 0.0178802
366 0.005211 0.0495623
109 0.0616332 -0.0130975
389 0.0633285 0.0269851
94 0.0253576 -0.0149952
317 -0.0348772 -0.0098466
18 -0.0384483 -0.00777699
96 -0.0174323 0.0412985
