ITEM: TIMESTEP
6000000
ITEM: NUMBER OF ATOMS
400
ITEM: BOX BOUNDS pp pp pp
0.0000000000000000e+00 2.0000000000000000e+01
0.0000000000000000e+00 2.0000000000000000e+01
-5.0000000000000000e-01 5.0000000000000000e-01
ITEM: ATOMS id vx vy
62 0.0314537 2.48707e-05
10 0.016516 0.0139674
298 0.00777373 0.0374357
44 -0.0229001 -0.0382611
346 0.0505684 -0.00364982
109 0.0115675 -0.0494427
389 0.0895768 0.0203168
33 -0.0786488 -0.0444497
11 -0.0259905 -0.031211
140 -0.011643 0.0506862
366 -0.0653741 0.0224198
8 -0.0440966 -0.0173818
87 -0.0423401 0.00293764
79 -0.00778932 -0.0495278
19 -0.00611605 0.0125901
395 0.035046 -0.0221686
281 -0.0339527 0.014411
383 -0.0368637 0.056754
328 0.0313896 0.109305
45 0.0247507 0.00706548
5 0.009123 -0.0328741
230 0.00663062 0.0161975
54 0.0202051 -0.000852619
55 -0.0372839 -0.0149841
94 -0.0109571 -0.015443
17 0.0221648 0.0313619
96 0.00620295 0.0273945
339 0.00559619 0.0537026
9 0.00281523 0.00682287
43 -0.0754038 0.0358837
385 -0.00464987 0.0247332
73 -0.0311709 -0.0254821
110 -0.0437256 -0.034543
114 -0.0358535 -0.0207768
69 0.00301516 -0.00650321
58 0.0249249 0.0237078
30 -0.0260123 -0.0109683
361 0.0181186 0.00567161
61 -0.0287372 -0.00276713
378 -0.0341738 -0.00952867
270 -0.0129421 -0.00693628
71 -0.00345616 -0.0589305
130 0.00995274 -0.0415383
153 -0.0740294 0.0160066
37 0.0354171 0.0201619
177 -0.00782492 0.0115392
396 0.0398383 -0.00428718
223 0.00524118 -0.0698064
38 -0.0228666 -0.00497787
160 0.0581215 -0.0759122
127 -0.0130496 -0.0161413
46 -0.0216209 0.0139445
27 -0.000235558 -0.0083552
26 0.0250547 -0.0487307
49 0.0134742 -0.00154425
70 0.0310303 0.0108165
370 0.0392827 -0.0365873
24 -0.092386 0.00277377
122 -0.0223468 0.0480098
201 0.0219443 0.00501044
22 -0.0480766 -0.016111
63 -0.0190103 0.000920362
271 0.0199183 0.0129739
75 0.023777 -0.00606271
179 -0.0330886 0.0489475
99 -0.0292104 0.0141329
139 0.0178594 5.93371e-05
4 0.00496927 -0.00879246
104 -0.0356951 0.0359974
65 -0.0304796 -0.0147483
6 0.0235827 0.00922904
108 -0.0319888 -0.0400605
52 0.000261399 0.0503769
91 0.034141 -0.0554268
82 -0.0281628 -8.40312e-05
56 -0.0126281 0.0504396
138 0.0123389 -0.00959116
97 -0.00848897 -0.0419222
117 -0.0182905 0.0349129
120 -0.00221946 0.0211019
143 -0.0419263 0.0367276
68 0.0430552 0.0488004
172 0.014492 -0.0260088
1 -0.0194387 -0.0735504
316 0.0221545 -0.0300603
167 0.00910427 0.0364867
151 0.0172806 0.0464625
14 -0.0092828 -0.0661832
123 -0.0325173 0.0522688
115 -0.0239888 -0.00329494
209 0.0806474 0.0452581
356 -0.0388187 0.00914461
80 -0.0455433 -0.0439532
121 0.0386875 -0.0235985
239 -0.0332304 0.0393004
161 -0.0716456 0.00286839
159 0.0270297 0.056135
145 -0.0183933 0.0381542
206 -0.0084377 -0.0286009
197 -0.0135572 -0.023745
36 0.0274783 0.0106292
259 0.038835 -0.00352536
137 0.0161708 0.0287739
105 0.0128456 -0.00873499
85 0.0544637 -0.0038682
28 -0.00213014 0.0463237
23 -0.0215785 0.0659767
72 0.0157584 0.0156875
76 0.0394243 -0.0051649
154 -0.0229346 0.0107812
102 0.00726458 0.0412236
186 -0.0335609 -0.0351199
213 0.0357498 0.00387744
51 -0.0320259 -0.0440968
132 -0.0508311 -0.0499618
178 -0.0108874 0.0218084
112 0.0312512 0.00922129
162 0.0238462 0.000359602
182 0.036518 0.0023416
25 0.0666353 0.0539077
86 0.0303691 0.0320185
106 -0.0449614 0.0339397
124 0.0241123 0.0603839
136 -0.0217761 -0.0247983
174 -0.040672 -0.0136409
116 -0.000218188 0.0288862
235 -0.0275446 0.0194279
78 0.0128864 0.0275792
83 0.00603721 0.0143132
219 0.0239873 0.0162858
141 -0.0320546 -0.000283314
67 -0.00703833 -0.0414641
131 -0.00985201 0.0433631
152 0.0088465 -0.0296354
7 -0.0127867 0.0174984
150 0.00570327 -0.0110497
50 -0.0146903 0.0519148
95 -0.00898544 0.0402773
77 0.0229368 -0.0242154
119 -0.0416092 0.00362866
81 -0.0082401 -0.00041206
301 4.15245e-05 -0.0344797
221 0.0282835 -0.0314759
98 0.0017944 -0.0258317
66 0.0447584 0.0298971
107 0.0153759 0.0366669
155 -0.0086649 -0.0239156
92 -0.0370333 0.0343342
208 0.0175003 0.0302365
173 -0.00374881 0.0173056
218 0.0267006 -0.0111947
217 0.055367 -0.00742931
194 0.0104168 -0.0179194
158 0.0401412 0.0337247
275 0.0141942 0.0101432
202 -0.0100334 -0.010281
157 0.015007 0.0091294
163 -0.00605726 0.0514348
169 0.0281627 -0.00568419
88 -0.0108263 -0.0425998
171 -0.0283252 0.0315293
113 0.0039859 -0.0248521
313 0.0432379 0.0233361
103 -0.0599531 0.0257402
285 -0.00516223 0.0441385
118 0.0392154 0.000431177
164 0.00634623 -0.0147793
227 -0.0328759 0.0362429
255 -0.0309151 -0.0455542
190 -0.0187497 -0.0476982
175 -0.0450192 0.0055776
181 -0.0400161 -0.0329576
100 -0.0165772 -0.0146851
183 -0.0318704 0.0175521
146 0.0206182 -0.00532282
170 -0.0122314 0.0126713
147 -0.0524803 0.0158446
111 -0.00319112 0.0430508
192 0.0199265 -0.0164237
234 0.0422729 -0.0178681
144 0.00154351 -0.0286914
279 0.00963663 0.0153352
198 0.0174908 -0.0263663
324 0.0025629 -0.0115429
284 -0.015357 -0.0350391
128 0.00989937 0.00461513
184 -0.0519959 -0.0138841
148 0.0176005 -0.0231958
204 -0.0285895 -0.0107907
195 0.0152409 -0.0351573
237 0.00258796 -0.00629819
214 -0.0441118 -0.0175732
200 -0.0239381 0.0304545
297 -0.00598008 -0.0497015
260 -0.0108669 0.0361514
185 7.68871e-06 0.0785762
299 -0.0583427 -0.0579887
166 -0.00082576 -0.0108245
266 -0.00713403 -0.00202447
142 -0.0258988 0.0359625
133 -0.0050545 0.0582426
211 0.0210711 0.0193241
149 -0.0365205 0.0270474
229 0.0169903 -0.0355531
233 0.0527733 0.0103291
215 -0.00130089 -0.0243528
231 -0.0131172 0.0295451
254 -0.00673377 0.0199531
300 -0.0158953 -0.0217824
165 0.000321087 -0.0263046
180 0.0173306 0.016559
247 -0.0165725 0.0140582
272 -0.0369497 0.0287093
189 -0.0176189 0.0047453
310 -0.00450748 0.048667
212 -0.0268203 0.0336765
216 0.000933081 0.0395306
134 0.0178774 -0.0141573
196 -0.0110843 -0.0147394
59 0.0100488 -0.000598878
126 -0.0346175 0.0621475
358 0.0122642 0.0302753
199 -0.0158916 0.0156377
228 -0.0176216 -0.0628304
34 0.0376544 0.0190667
335 -0.0314299 -0.0134286
252 0.0480268 0.0632425
135 -0.0141146 0.0244297
307 0.0494418 -0.0067142
282 -0.00198501 -0.0234011
129 -0.062861 0.0227333
304 -0.00111699 -0.0215521
188 0.00167263 -0.0263248
334 -0.0239084 0.0261719
273 -0.0240542 0.0344907
236 -0.0581311 -0.0108746
156 -0.0258255 -0.0425898
176 0.0501958 0.0255334
277 0.0181733 -0.0781846
394 -0.0203672 0.0270339
238 0.0153732 -0.000377151
241 -0.011056 0.0410436
240 0.0142255 0.0109864
125 0.0330668 0.0143111
265 -0.0164684 -0.000598083
263 0.00285214 0.00855703
226 0.0327957 -0.0120656
32 -0.0451686 0.0346608
193 0.00876888 -0.0191055
286 -0.0390563 -0.0799143
296 0.0176856 -0.0707811
397 0.0185032 0.018768
256 0.0394595 0.0354303
222 0.0147554 -0.00314318
203 -0.0263139 0.0110847
318 0.0094368 0.00425337
323 0.0351539 0.0675587
225 -0.0256618 -0.0127839
289 0.00315263 0.0114155
309 0.029039 -0.00794627
187 -0.00138472 -0.0118462
253 -0.0237831 0.0402265
278 0.0412296 0.0710733
274 -0.034467 0.0102392
251 0.00442919 -0.035085
242 -0.0690782 -0.036772
244 -0.0152352 -0.00606277
243 -0.0835611 -0.0134707
224 -0.00997816 0.0143586
367 -0.00506795 0.0316878
267 0.0111826 0.00583368
292 0.0186717 -0.0153978
388 -0.0441493 -0.0336703
312 -0.00991476 -0.00029329
311 0.0326245 -0.0101092
191 0.0522115 -0.031011
314 0.00758707 0.0244701
293 -0.00913546 0.00817263
261 -0.0465275 0.000767973
205 0.0263166 0.00429934
262 -0.0518981 0.0526197
264 0.00871163 -0.0283829
248 -0.00392186 -0.0132007
287 0.0322362 0.0127752
246 0.013943 0.0246137
374 -0.00171269 0.00326787
341 0.0377266 0.0392964
276 0.0715933 0.0249016
302 0.00763302 -0.0385871
306 0.042583 0.0303203
327 0.0195497 -0.0286189
369 0.00407838 0.0185318
294 -0.0107647 -0.0446725
168 -0.00393182 -0.00068697
250 0.0248624 -0.0154083
13 -0.087292 -0.0468123
3 0.00844794 -0.0249462
398 0.0403992 -0.0123757
84 0.0240139 0.0288293
343 0.023207 0.00510981
64 -0.00352154 -0.092465
308 0.0533173 -0.0215836
290 -0.0381767 -0.0207213
392 0.024239 0.00795895
258 -0.01979 -0.044942
210 0.0473367 0.0929784
320 0.0642815 -0.0339891
41 -0.00942351 0.0277699
393 0.0236749 0.00756614
360 0.016248 0.0061062
321 0.041686 0.0444661
364 -0.0457242 0.00683995
2 0.015668 0.0330351
249 -0.0153281 0.0366809
269 0.00268295 0.00345009
319 -0.0422586 -0.0227438
338 0.0228389 0.0125279
280 0.0517548 -0.0190083
384 0.0204016 -0.0470875
207 0.0162022 0.0171512
47 -0.0203756 -0.00969474
386 0.00862231 -0.0136888
352 -0.00385974 0.0306247
232 0.00996791 -0.0153924
220 0.0131212 0.0542521
257 0.0164933 0.0262212
362 -0.0384601 -0.00352583
382 -0.00589517 -0.0149926
347 0.0177016 0.057881
372 -0.0338277 -0.0824129
16 0.0364538 0.0246352
31 -0.013273 -0.0659754
329 0.0394181 0.025029
331 0.0198512 0.00852369
15 0.0170404 0.00717704
379 0.0389303 0.0585674
399 -0.00400361 0.00542306
340 0.0212695 0.030298
295 -0.0115007 0.0219252
12 0.00270265 -0.00760142
363 0.0454341 0.0141462
268 -0.0217315 -0.0176019
337 -0.0265718 -0.00644366
21 -0.0101952 0.014503
322 0.00381473 -0.00694682
89 0.0082877 -0.0157499
344 -0.0316516 -0.0374346
305 -0.0365798 -0.0596594
348 -0.0243935 0.0204848
333 0.0252656 0.00871449
53 0.00878497 -0.0842777
354 0.0202272 0.00796866
380 0.00354506 -0.00922386
326 0.00900695 0.00949021
288 -0.0418344 -0.0138541
350 0.00518925 0.0160838
371 0.0188529 -0.0188155
93 -0.033447 0.0184562
332 0.038405 -0.00475848
400 -0.0392653 -0.00397463
373 -0.0183824 0.026926
353 0.0181014 0.0175396
377 -0.0139061 -0.016514
359 0.0675832 0.0395807
375 0.0319541 -0.0175281
35 0.0511212 0.037172
345 -0.0268604 -0.0296015
387 0.0137178 0.00743426
330 0.0139957 -0.00862959
351 -0.0338638 0.0168492
390 -0.01408 -0.0206582
245 0.0317647 0.00757678
90 -0.0363952 -0.0672004
355 0.00113533 0.0213466
336 -0.0182247 0.0237875
376 0.0343549 -0.0259307
18 0.0163351 -0.0239994
101 -0.00234296 -0.00473489
303 0.0239217 0.0183665
381 -0.0625676 0.0127609
325 0.0181934 0.00555867
48 0.00965104 -0.0234687
349 0.0327542 0.00817807
29 -0.0407506 -0.00704807
74 -0.0313011 0.0306276
57 -0.00183623 0.00447625
39 -0.0319083 -0.00536399
283 -0.0275835 -0.0224767
20 0.00324011 0.031765
60 0.0406902 -0.00577336
365 0.0491937 0.0322715
42 0.0474733 0.00184508
391 0.0113521 -0.0180823
291 0.0221874 0.0081039
368 0.027707 0.0218255
317 -0.0247459 0.0716605
357 0.0281372 -0.0347396
315 -0.0286398 -0.000846652
40 -0.0263422 0.0402623
342 0.0353848 -0.017195
