ITEM: TIMESTEP
7000000
ITEM: NUMBER OF ATOMS
400
ITEM: BOX BOUNDS pp pp pp
0.0000000000000000e+00 2.0000000000000000e+01
0.0000000000000000e+00 2.0000000000000000e+01
-5.0000000000000000e-01 5.0000000000000000e-01
ITEM: ATOMS id vx vy
11 0.0224602 -0.0333378
60 0.00285263 0.0167451
89 0.00629621 -0.0165085
391 -0.0136563 -0.0242158
355 -0.00472079 0.0586157
74 -0.00497456 -0.0143946
368 0.010704 0.0448116
379 -0.01121 -0.0118972
396 0.0252549 -0.00113471
383 0.00121785 0.00839624
44 0.0174311 0.00749512
71 -0.0543547 -0.0275241
8 0.0223121 0.0071598
389 0.0543754 -0.0492964
353 -0.01293 0.0269352
17 0.032366 0.0633917
357 -0.00709852 -0.0497539
127 -0.01236 0.0131209
223 -0.00723407 -0.0786884
378 0.0165694 0.00336513
328 -0.0279649 0.000451902
20 -0.0202828 0.0315964
303 0.029766 0.0250643
270 -0.00959249 -0.0389231
30 -0.0297308 0.00341761
316 -0.0135203 0.0523724
281 -0.0229753 0.0561348
160 -0.00139518 -0.0286384
339 0.045086 0.0478378
140 0.0234557 0.0127354
73 -0.0348363 0.0269968
102 -0.0210745 -0.068945
108 0.00128432 -0.0604829
19 -0.0681293 0.0110079
122 -0.0122358 -0.00823719
201 0.0131782 0.04232
366 0.0244126 -0.0393272
5 0.0316882 0.0247616
75 0.0020153 -0.0471859
291 0.0198941 0.0302578
29 0.0429443 0.0491462
130 0.0359114 -0.0871793
317 -0.0185572 0.0060004
79 0.00919289 -0.0709327
96 0.0321562 -0.0201813
9 -0.00787062 0.00893589
27 0.0176826 -0.0220015
143 -0.0226125 0.0364857
87 -0.000378628 0.0209908
153 0.0187931 0.00200996
33 -0.0186461 0.0251545
99 0.0610521 0.0230663
43 -0.0424076 0.0198281
385 -0.0203034 0.00128591
69 0.0162569 -0.0116164
55 0.0202995 -0.00701125
54 -0.057994 0.0258151
361 -0.0385748 0.00278092
94 -0.0642171 0.0244315
121 -0.00194866 0.0309579
259 -0.00701082 -0.0408947
38 -0.034186 0.0505168
86 -0.0412337 0.0369105
6 0.0142601 -0.0164425
91 -0.00390584 -0.0623188
370 -0.0287484 -0.0180674
58 0.0163377 0.00951771
82 -0.000657773 -0.0457814
24 -0.00714437 -0.0343367
37 -0.00862259 0.0246856
1 0.00982768 -0.0473871
139 -0.0342918 -0.0292011
97 0.00440438 -0.0409396
46 0.0278069 0.00305542
186 -0.0229647 -0.0553618
68 -0.000947728 0.0127092
206 -0.0669746 -0.0242974
172 -0.0190624 -0.000499753
80 -0.0527405 0.00379814
117 0.016286 0.0266588
104 0.056352 -0.00615861
45 0.0781492 0.0710404
63 -0.0477853 -0.05661
123 -0.0463009 -0.0395816
115 -0.00348061 -0.012447
136 0.00036158 0.00110095
51 -0.0094165 -0.0378346
23 -0.00353157 -0.0208025
56 0.0221366 0.00800948
209 0.0111042 -0.0561765
138 0.0137468 0.00900579
67 0.0127923 -0.0599572
271 0.0288636 0.0200436
52 0.111552 0.0188141
255 -0.025966 0.00925625
179 0.0142795 -0.00251266
239 -0.0264334 0.0339338
4 0.0338214 0.0173605
22 -0.0744281 -0.0066789
162 0.0335361 -0.0289134
145 0.0866726 0.00326643
151 0.0525341 0.0286574
132 0.0210467 -0.047386
72 0.0439803 0.0230825
197 -0.0270192 -0.000295513
76 -0.0145377 -0.0152028
36 -0.0176531 0.00547757
178 0.00518501 -0.0264957
177 -0.0132642 0.000936648
154 0.0353023 -0.00352447
119 -0.0425859 -0.0532019
120 -0.0575474 0.0538601
65 0.0327676 0.0482404
159 0.0406106 -0.0244269
25 -0.00390519 -0.0316158
167 0.00451079 0.00566129
14 -0.00400008 0.025982
70 -0.0267449 0.042063
152 0.00595644 -0.0165848
235 -0.0199944 -0.00237645
112 0.0407539 0.0390495
137 0.0493872 -0.0107878
161 9.23624e-05 -0.00139184
141 0.00623916 0.0670062
164 -0.0349512 -0.030193
182 -0.00402482 -0.0201659
213 -0.0250593 0.0372931
7 -0.0165633 -0.0426297
356 0.0229568 0.00277291
194 0.00733289 -0.0380722
83 0.00347255 -0.0554248
105 -0.00399435 0.0448193
219 -0.0265963 -0.0137273
221 -0.00371951 0.0164642
106 -0.0121924 -0.0416233
88 -0.00449387 -0.0152586
85 0.00234446 0.0276809
155 -0.0176031 0.0290362
113 0.0042066 -0.062011
208 -0.0261186 -0.023861
192 0.0212717 -0.0392055
77 0.00509368 -0.0418246
78 0.0206465 0.00111511
275 0.0273051 0.00136124
301 -0.0440833 -0.000846743
183 -0.0185297 0.0068309
66 0.0183966 -0.021305
124 -0.0141099 0.0591636
147 0.00957297 -0.0167115
131 0.0065576 0.0358821
150 -0.018342 0.0164356
116 0.0435068 0.0218717
95 -0.0188322 0.00277146
158 -0.00597104 -0.0293785
81 -0.0149777 -0.0562087
279 -0.00179908 -0.0386144
163 -0.0108852 0.0308004
98 -0.0172223 0.0144426
157 -0.00575297 -0.0133583
169 0.053845 -0.0497527
324 -0.0311122 -0.00603616
170 -0.00669403 0.0253022
28 0.0513546 -0.00929399
204 0.0186915 -0.0319848
111 0.0422612 0.00898394
195 0.00681338 0.0059161
174 -0.0799985 0.016687
218 0.0111985 -0.0169629
214 -0.00922665 -0.0133452
297 -0.0309346 0.00441388
202 0.0135846 -0.00156837
103 0.00821955 -0.0269769
181 -0.0118089 -0.0131261
227 0.00765733 0.0292838
128 0.00741144 -0.0409321
171 0.00607618 -0.0365441
149 0.0117335 -0.0888386
92 -0.000991116 -0.00463463
175 0.0195175 0.00178856
217 0.00833912 -0.00793761
277 0.026489 0.0354598
233 0.0367126 0.0127787
144 -0.026907 -0.0121472
284 -0.0283005 0.0119945
100 -0.0146994 -0.0261731
146 -0.0118973 -0.0116491
266 -0.031703 -0.036697
133 -0.00454559 -0.00278866
334 -0.025 0.00890898
142 0.0305763 -0.0259682
134 0.00883919 -0.0511354
190 -0.0125746 0.0479951
200 0.00586165 0.0298248
231 0.00600562 0.0170357
282 0.0157008 -0.0159279
118 0.00131512 -0.00306981
199 0.0488413 0.026688
304 0.00952031 -0.019208
107 -0.00861342 -0.0283073
148 -0.0450441 -0.0147534
216 0.00396864 -0.0186098
50 -0.0175713 0.0480433
173 -0.00745728 -0.0140286
196 0.0434747 0.0276423
256 -0.0302453 0.00120943
215 -0.00151637 -0.0017547
234 -0.0238548 -0.0207575
254 0.0231882 -0.0261218
285 0.00620978 0.0628927
125 -0.0197281 -0.0802143
247 -0.00623906 0.0215165
188 -0.00399821 0.0127461
34 -0.0360436 0.00161468
335 -0.0131025 0.0212207
237 0.0258454 -0.00985743
313 -0.00835211 0.0416696
126 0.0378256 -0.0328693
299 -0.021115 -0.038261
180 0.00724126 -0.0358739
166 -0.0155078 -0.0336712
323 0.0505766 0.0286689
184 0.00721877 0.0164281
226 0.0420244 -0.00995239
309 -0.000575198 -0.00948917
236 -0.0498149 -0.00776911
296 -0.00375655 -0.00910504
198 0.0134265 0.0137695
260 -0.0250128 -0.0336441
238 -0.00155402 0.00161364
185 0.0305737 -0.0125644
272 -0.0159429 -0.0268425
189 -0.000204116 -0.00378635
211 0.00175633 0.0169882
273 0.0332202 -0.0359756
165 -0.00975675 -0.0222427
318 -0.0243245 0.0382799
224 -0.00300488 -0.0389475
129 0.0351538 -0.0676685
228 -0.0346425 -0.0129423
310 0.00802054 -0.0319584
212 -0.0145894 0.0140485
286 0.0331438 -0.0735779
156 0.00192889 -0.0303358
397 0.00248278 0.0133718
252 0.0481696 0.0419721
394 -0.0131956 0.0376513
358 0.0476563 -0.0224385
263 -0.00367753 0.00342955
267 0.0337436 -0.0135638
292 0.0293371 0.0177561
32 -0.0201164 -0.026158
193 -0.0112847 -0.0514364
135 0.00209203 0.00325017
300 0.0170748 0.0197524
203 -0.0147464 -0.00870129
84 -0.0321321 -0.0246911
261 0.018174 0.0162632
241 0.0220214 -0.0362173
240 0.0189182 0.0462343
248 -0.0378707 -0.0118431
253 0.0447356 0.0112674
16 0.0343791 0.0136599
311 -0.000308722 0.000642366
307 -0.0368462 0.0172014
302 0.0261917 0.0248394
222 0.0445816 -0.0343667
244 -0.0238281 0.0243827
327 -0.0140484 -0.0259904
321 0.0162319 -0.0537109
306 0.0336739 0.0187003
265 0.041535 0.0170521
264 0.0267578 -0.0232717
289 -0.0365629 0.0236528
225 0.00515357 0.0429796
13 -0.00794881 0.0252834
388 0.0121185 0.00633807
229 0.0384282 0.085487
3 0.00385996 -0.0357941
341 0.00840778 0.0501544
251 -0.0201777 0.0479781
59 0.0530501 0.0410614
276 -0.00314395 -0.00703488
384 -0.00286819 0.0290803
367 -0.0322795 0.0514519
294 -0.0139218 -0.0145519
187 0.0502948 0.0779245
287 0.0353173 0.0262127
374 0.0107647 0.0029278
191 0.0209581 0.0189692
278 -0.0298065 0.00806764
176 -0.0107881 0.0387203
398 0.0105651 -0.0253558
242 0.0405179 0.0388503
41 -0.0516581 -0.048453
393 0.0148284 -0.0185739
205 0.0239992 0.0235797
243 0.0622431 -0.022387
369 0.00763048 -0.0157807
168 -0.0469476 0.00971867
250 -0.0347079 0.0219475
329 0.0349141 -0.0197981
274 -0.0268976 0.0342069
293 0.0279492 -0.057075
257 -0.0275221 0.00735342
363 0.0117792 -0.0292409
343 0.0524771 0.00543236
344 -0.00462821 -0.00563111
207 0.0114344 -0.015816
269 0.00130112 -0.025522
314 0.0131096 -0.00360853
338 0.0276241 -0.0215757
280 0.0206159 -0.00101694
262 0.0144592 0.037366
360 0.0131108 0.0230539
382 -0.00165421 -0.00534593
333 0.0168188 0.0450821
245 -0.00354321 -0.0909456
246 0.00306815 0.0459715
290 0.00459358 -0.0413353
319 -0.00599531 -0.00404174
399 0.0345503 0.013727
345 -0.00158401 -0.0320934
364 0.0664229 -0.0449667
305 -0.0125932 0.0251824
249 0.00429542 0.0337521
90 0.0279204 -0.0553245
312 0.0243014 0.061579
258 0.0493834 -0.0173639
220 0.0368059 -0.0212588
21 0.0226777 0.013964
47 -0.0461677 -0.0243604
64 -0.0778555 -0.014309
322 -0.0336301 -0.0179162
386 -0.0537916 -0.000368192
2 -0.0267476 -0.00581049
371 0.014496 -0.00874966
308 -0.0584495 0.0388541
348 -0.0332352 0.0131527
48 0.0563971 -0.0123123
53 0.0692842 0.0249368
31 -0.0361733 -0.0301292
373 0.00465294 -0.0118063
392 -0.0111692 0.00806935
340 0.0109772 0.0031864
331 0.0115776 -0.0308138
18 -0.0139115 -0.0234031
320 -0.00257739 -0.00249159
337 0.00531113 0.0250007
372 0.00237107 -0.0481182
365 0.000293717 -0.0825026
42 0.0296923 0.02643
349 0.0403674 -0.0431983
400 0.0185954 -0.0302907
336 0.0162184 0.0114373
101 0.00659011 0.00528403
210 -0.00335836 0.00705863
387 -0.00218435 -0.0321279
62 -0.0156432 0.00301023
381 -0.0297711 0.00106977
350 -0.0314294 0.0408161
298 0.0122844 0.0295289
93 -0.00800458 0.0660841
351 -0.0328115 -0.00889312
352 0.00589191 0.0144803
354 0.0548179 -0.0118271
232 0.0386829 -0.0115708
12 0.00884451 -0.0249646
10 -0.0454431 0.000965843
283 0.0105225 0.00861193
268 0.00107238 0.0607658
347 0.0256402 -0.00930978
332 0.059767 0.0117667
359 -0.00449991 -0.0133987
376 0.0180603 0.0165685
39 -0.0159894 0.00247408
315 -0.0120921 0.0239751
295 -0.0275791 -0.073618
380 0.0753918 0.0412838
288 -0.0118894 -0.0676618
330 -0.0857785 -0.0471052
325 0.0306809 -0.00651672
109 -0.0627683 0.0317171
15 0.0223494 0.0543882
375 -0.0432483 0.0314146
35 -0.0346027 -0.0173715
326 0.0332404 -0.00319325
362 -0.0936683 0.0503336
346 -0.0239591 -0.0537494
49 -0.0321088 -0.0369929
230 -0.00776196 -0.0247521
26 -0.0119128 -0.0281614
390 -0.0106698 0.0506547
110 0.0144228 -0.0335717
114 0.0117425 -0.0368421
377 0.0189754 0.0260962
57 -0.0680714 -0.0125703
40 -0.0626686 -0.0401855
61 -0.0462247 -0.0361561
395 -0.0635085 -0.0659431
342 0.0199707 0.00215298
