ITEM: TIMESTEP
8000000
ITEM: NUMBER OF ATOMS
400
ITEM: BOX BOUNDS pp pp pp
0.0000000000000000e+00 2.0000000000000000e+01
0.0000000000000000e+00 2.0000000000000000e+01
-5.0000000000000000e-01 5.0000000000000000e-01
ITEM: ATOMS id vx vy
380 -0.0119002 0.0317932
11 0.0330764 0.0400067
89 0.0424646 -0.0481633
27 -0.0107078 0.045868
109 -0.0903955 -0.00496357
19 -0.0229462 -0.0515683
130 0.0698171 -0.0382854
30 -0.00946001 -0.000255491
389 -0.00885748 0.0209174
357 0.0290341 0.0182889
315 0.0234959 0.00760533
395 -0.00597866 -0.0582603
210 0.014893 -0.0127455
378 0.0346349 0.00492384
283 0.0707576 -0.00797412
2 -0.0303178 0.025455
391 -0.050911 -0.00834688
108 0.0169555 -0.0167813
8 0.00864936 0.0293483
82 0.0355997 -0.0218114
17 0.0291184 -0.0458765
342 0.0249112 -0.0216816
396 -0.0242613 -0.0331668
362 -0.000392823 0.0239063
339 -0.0302576 -0.062457
288 -0.00366396 -0.0256454
110 -0.0229315 0.0870739
153 -0.00931669 -0.0330512
12 0.00172555 -0.00815084
160 0.00269623 0.0334746
223 -0.0393466 0.0112306
328 0.03412 0.00800175
60 -0.000631279 -0.00999904
270 0.0556426 0.00666415
6 0.0242138 0.0052761
26 0.0177793 -0.0170246
91 -0.0070454 0.0203749
24 0.109257 0.0104435
54 0.0168062 0.0179308
57 -0.00558024 0.0225158
127 -0.0324655 0.00911584
43 0.0437139 0.0511648
63 -0.0287079 0.00484478
20 0.0146072 -0.00876353
140 0.0487131 0.0119488
86 -0.0588525 -0.0731654
303 0.0137889 0.0292179
73 -0.00426756 -0.023273
268 0.0546437 0.0387671
291 -0.0147539 0.0575618
390 0.0329687 0.0061333
361 -0.034058 -0.0172398
353 0.0435764 0.0288998
1 -0.0479448 0.0746566
94 -0.0302062 0.0465454
96 -0.0232294 0.0195245
366 -0.00875438 0.0357262
370 -0.00151121 -0.0301019
29 -0.00171973 -0.0351725
317 0.0295249 -0.0340833
56 -0.0339014 -0.013888
379 0.00196339 0.0332562
281 0.0234378 0.0621776
259 -0.024066 0.0634322
97 0.0311026 0.0472215
44 0.0575652 -0.024173
68 -0.0125392 -0.0426291
209 0.03772 -0.0792311
99 0.0167437 0.0147412
239 0.0143206 -0.0743947
139 0.00775701 -0.0118274
117 0.0308311 0.0212417
162 -0.051624 -0.00857252
102 -0.0551822 0.0516664
143 0.00248305 0.0680523
87 -0.0216507 0.0393871
206 -0.0224168 -0.0223931
55 0.0129108 0.0359544
51 -0.0134716 0.0139195
37 0.0200178 -0.0104656
201 0.0154996 0.0364512
9 -0.00305394 -0.0213443
5 -0.00706821 0.0746748
45 0.0367228 -0.0607553
25 -0.027872 -0.037199
75 0.0172136 0.0215775
152 -0.00380586 -0.000704759
33 0.041025 0.001466
132 -0.0140201 0.00984598
79 0.0431478 -0.00564109
38 -0.0161363 -0.00939164
104 0.0047669 -0.0315476
106 0.0130443 -0.0546375
182 -0.00646214 -0.0189295
123 0.0588644 -0.0093793
271 0.00894773 0.00745798
115 -0.0455196 -0.0126675
136 -0.0151921 -0.0303778
58 -0.0225021 0.0181258
194 -0.035688 -0.0478371
36 0.00328855 0.0293192
138 -0.0079466 -0.017317
121 0.0107844 0.0025756
177 -0.00969455 0.0223573
119 -0.028939 0.0149649
69 -0.0270198 0.0288518
255 -0.0206923 0.026631
76 -0.0191117 -0.0273393
178 -0.0286341 -0.046848
83 -0.00624882 -0.000962543
385 -0.0378375 0.0474212
67 0.00394317 -0.00918118
46 -0.00259386 0.0152697
52 -0.0382427 -0.0320193
186 -0.0132959 -0.0149869
195 -0.0238247 -0.0106815
72 -0.0138018 -0.0362741
80 0.0171868 -0.0250573
179 0.0134275 0.00432355
77 -0.0251302 -0.0319988
78 0.0251016 -0.0194037
161 -0.052273 0.0128671
22 -0.0118895 0.0122267
164 0.0582218 0.0317631
66 -0.0247213 -0.0486719
145 -0.0310793 0.00400117
151 0.0412843 0.0199397
208 -0.0185998 -0.035802
174 0.0178191 -0.0369221
172 -0.0253618 0.0173176
356 -0.0363457 -0.00592057
192 0.0239048 -0.004668
103 -0.0157539 -0.00914415
81 0.0115532 -0.00532699
275 0.0411319 0.0200922
154 0.0371821 0.0567582
120 0.000347099 0.0275293
219 0.0330963 -0.00772465
4 -0.0171118 0.00692755
159 0.0679354 0.0105966
65 -0.0174611 0.0431606
88 0.0550853 -0.00614331
14 0.0759062 0.00708226
7 0.0666299 -0.00391684
235 0.015658 -0.0267233
23 -0.00444097 -0.0446763
181 0.00522544 -0.0400841
141 0.00822647 0.053425
169 0.0476355 -0.026501
213 0.0323347 -0.0305695
155 -0.000879679 0.0140455
113 -0.00169023 0.0584755
131 -0.0202049 0.0377544
134 0.0107679 -0.00908398
197 -0.0266902 0.00874573
254 0.0102067 -0.0117021
137 -0.0331072 -0.0220302
98 0.0253405 -0.0310339
128 -0.00668818 -0.0103157
85 -0.0177483 0.001212
204 -0.00761061 0.0564292
70 -0.0018989 0.0530117
111 -0.0214622 0.0294083
335 -0.00110635 -0.0378204
173 -0.0387254 -0.04759
214 -0.0250344 0.0329344
218 0.0142518 -0.0430353
112 -0.00681526 0.0569317
301 -0.0389114 -0.0379737
105 -0.0492982 0.0703799
221 -0.0372657 -0.0593165
227 0.00695675 -0.0220874
167 -0.0110037 0.011541
334 0.00735035 -0.0360396
175 0.0314068 0.00872704
297 0.030822 0.0178234
200 -0.0149719 -0.0117512
202 -0.00414653 0.0320948
157 0.0110351 0.0222807
324 0.00386826 0.0119286
183 -0.0375713 -0.0151061
107 -0.0328034 -0.0276268
124 0.0160465 0.00636583
28 -0.0106721 -0.0277197
147 0.0238237 0.0533697
216 0.0174358 -0.00620457
149 0.00444786 0.0310391
296 -0.0286322 -0.00841154
95 -0.0366022 0.0531456
158 0.0161635 0.0250341
217 -0.0576843 -0.00826028
144 -0.02362 0.011385
285 -0.0125638 -0.0142024
146 -0.000588204 0.0228856
148 0.010358 0.0266048
226 -0.0103494 0.0659282
116 -0.00390983 0.044512
256 -0.0158195 -0.0137007
233 -0.019046 0.0117158
163 -0.0599299 0.00232912
279 -0.0466846 0.00432809
185 -0.0534439 -0.0317303
282 0.0204861 0.0118387
180 0.0368059 0.00171213
125 -0.00315247 -0.0216111
171 0.0252527 -0.0560375
236 0.013777 0.0638937
50 0.0062553 0.0241158
92 0.051111 -0.0180165
150 0.00327918 0.0128117
231 -0.000425234 -0.00606811
260 -0.00311418 -0.00919184
318 -0.0165414 0.0239642
118 -0.0258477 -0.00981633
199 -0.058076 -0.0291565
266 0.0349377 -0.0346209
188 -0.0185445 0.0802467
212 -0.00156267 -0.0206878
215 0.0104411 -0.0275982
284 -0.0213211 0.0155416
252 -0.00563452 -0.0410301
244 -0.0230981 0.0196822
126 -0.0106071 -0.0221796
100 0.0360439 0.0215895
304 -0.040066 0.0214592
240 -0.0747778 0.00652342
263 -0.0259782 0.0669167
133 0.0464106 -0.0108295
170 0.0460388 -0.00247837
273 0.0136994 0.0357023
193 0.08723 -0.0348616
237 0.0303363 0.024479
277 -0.0218283 0.00186787
156 0.00445939 0.00664419
234 -0.0512234 -0.0167647
238 0.0274864 0.0113135
129 -0.0382335 0.0698138
323 0.00821826 0.0468203
264 0.00342099 -0.038669
34 -0.00670384 0.0124991
142 0.0243129 0.0149821
253 0.0198148 -0.0653549
286 0.0129704 -0.0126943
196 0.0126867 -0.0437295
394 0.0227884 0.0325189
393 -0.0152502 -0.00990745
165 -0.0256779 0.025514
299 -0.059297 0.012942
166 -0.0119711 -0.0189033
241 -0.0424458 0.0205471
309 0.0212856 0.0243866
211 -0.00928528 0.00579687
190 0.00229201 -0.0327572
310 0.00420052 -0.036441
313 -0.0604915 0.0116187
135 -0.049572 -0.0141594
300 0.016812 0.00960992
302 0.039381 0.0048611
198 -7.7165e-05 0.0155826
224 -0.0247968 0.0120683
384 0.00334132 -0.00483205
267 0.018202 0.0259635
292 -7.76568e-05 -0.00415032
287 -0.0044456 0.00866546
307 0.041719 -0.0464341
205 -0.0458429 -0.016353
261 -0.062969 -0.0227579
358 -0.0313039 0.0528014
321 -0.00846962 0.0499612
184 -0.0446934 0.0455719
289 -0.0519877 -0.00398927
189 -0.0340604 0.024288
374 0.0378338 0.00894786
203 -0.00172253 0.0302066
84 0.0475532 -0.0251474
243 -0.0259538 -0.0321502
247 0.0512873 0.0105194
248 -0.0364456 0.0732643
269 0.0136006 -0.0153336
245 0.0244919 -0.0223006
229 -0.0738349 -0.0240829
373 -0.0515977 -0.0421348
329 -0.00489945 -0.027986
191 0.0130642 -0.0188441
341 0.0115335 -0.0121238
222 0.0278514 -0.00804024
251 -0.0618764 0.0420507
327 -0.0223329 -0.026091
369 -0.0230799 0.0477678
207 -0.0118168 0.0343667
265 -0.00902132 -0.019502
168 0.028978 -0.0160678
32 0.0812478 -0.0261237
333 0.0226415 -0.0252166
314 -0.0472921 -0.0265619
176 -0.00712834 -0.00974596
242 0.000792233 -0.028246
364 0.00987123 -0.033449
272 0.0404975 0.0325139
365 0.0069163 -0.0353239
294 0.0399135 -0.026022
228 0.0130009 -0.029743
278 0.0464523 0.00969789
276 0.00538653 -0.0305722
343 0.0235631 0.0302461
382 -0.0371338 0.0180108
386 -0.0331378 0.0121145
306 0.00692182 0.0695199
348 0.00027827 0.0105271
397 0.0340625 -0.0277781
258 0.0537505 -0.0264152
399 0.0040326 0.0101863
398 -0.0574946 -0.00499073
41 0.0120511 0.0511633
257 0.0269065 -0.0314782
344 -0.0135025 -0.00662439
322 0.00291964 0.0158975
360 -0.0204936 -0.00801979
367 -0.0409626 0.00908162
48 0.00427151 -0.00365391
90 0.0509871 0.00986059
3 0.00730814 0.01133
16 -0.00903578 0.00082111
319 -0.00327988 0.00840389
274 0.00765218 -0.0147071
47 0.0186654 -0.0156575
250 -0.026253 -0.0345488
225 -0.0183438 0.0526555
388 0.0260448 0.0383467
290 -0.0379324 0.00858079
392 -0.060419 0.0473514
340 0.030372 -0.0448719
354 -0.0160373 0.00857565
338 0.000387703 -0.0284809
10 -0.0182969 0.0602968
262 0.0202415 -0.00106111
64 -0.03207 -0.0284248
246 0.0402699 -0.0370332
312 0.0147674 -0.026328
336 -0.0274076 0.000968836
359 -0.00428644 -0.0300023
331 -0.0273917 0.0647104
220 -0.00747321 0.0036859
59 -0.000843643 -0.00295311
363 0.0325254 0.0357268
372 -0.00155433 -0.0301812
13 0.00263927 0.0238454
325 0.00814851 -0.0230489
308 0.0573217 0.0169798
352 0.0062692 -0.0246746
232 -0.0005159 0.0116196
35 0.0203003 0.0475365
293 -0.00412402 0.0229226
345 0.00945145 0.029985
381 -0.00205554 0.0304346
21 0.0150152 -0.0179967
305 0.00609221 -0.0131218
371 -0.0193004 -0.00569444
311 0.00642467 0.0233855
377 -0.0310283 -0.00174357
15 -0.0259367 -0.0165871
39 0.0576395 0.00110326
61 -0.0436356 -0.0609487
320 0.00316532 0.0295206
101 -0.0107991 0.0343908
280 -0.00861318 0.00167369
62 0.0309881 0.0552434
326 0.0413289 -0.00821861
347 0.0410888 -0.00442441
346 0.0144941 0.0185298
249 -0.00609482 0.0628993
42 -0.0711964 0.0139304
49 0.00846227 -0.0339406
187 0.0153636 0.0163379
349 0.029745 -0.0181622
355 0.0178263 -0.0376447
332 -0.051618 0.00989147
53 0.0362564 0.0471287
375 -0.00945326 -0.0636977
376 0.0194162 0.0594159
18 -0.018982 -0.0194878
383 -0.0469941 0.0290709
337 0.00943365 -0.00841084
350 0.00518002 -0.0104864
93 0.000276844 0.0201791
71 0.0208721 -0.0299807
230 0.0702878 0.0229411
400 0.0170679 -0.0174301
31 0.029687 0.0430182
368 0.0180867 0.0178595
40 0.0150014 -0.00491207
295 -0.00889634 0.01879
330 0.0557858 0.0458903
298 0.0197499 -0.00255259
351 -0.0588435 -0.0348541
114 -0.048098 -0.0251992
74 -0.0511586 0.0241684
316 -0.0584688 -0.00712131
122 -0.00725572 -0.0768702
387 0.02353 0.0700748
