ITEM: TIMESTEP
9000000
ITEM: NUMBER OF ATOMS
400
ITEM: BOX BOUNDS pp pp pp
0.0000000000000000e+00 2.0000000000000000e+01
0.0000000000000000e+00 2.0000000000000000e+01
-5.0000000000000000e-01 5.0000000000000000e-01
ITEM: ATOMS id vx vy
62 -0.0105491 -0.00123862
288 0.027668 -0.0335211
42 0.00982406 0.0468757
19 0.0824008 -0.0194206
140 -0.00794475 -0.0329648
330 0.0290924 -0.0283792
89 0.0237725 0.0338464
109 -0.0464762 -0.0114628
153 0.049661 0.0446962
29 0.0547251 0.0127859
72 0.0182866 -0.0146665
355 0.0563009 0.0478771
57 0.00334642 0.05168
315 -0.0110569 0.00220644
259 -0.0156053 0.023552
342 -0.00642283 0.0216521
339 0.0209689 0.0383642
20 -0.0036459 -0.0259608
350 -0.00664115 0.00632125
283 0.0157126 -0.0207474
2 0.0248321 -0.0153535
361 0.0336877 0.0152313
353 -0.0343219 0.00167099
94 -0.00947669 -0.0270309
63 0.0624216 0.0364863
303 0.0571633 -0.0331765
268 0.0355216 0.0356171
391 0.0137125 0.0241955
8 -0.0208358 0.0189283
110 0.0479729 -0.0509409
127 -0.0120112 -0.00746213
96 -0.0444463 0.0578666
160 0.010888 -0.0219944
223 0.0531873 0.021865
362 -0.040111 0.0153532
270 -0.079607 0.00842578
106 -0.0245024 -0.0358761
73 -0.000406372 0.0338788
6 0.0376803 0.00803392
130 0.0111034 -0.04472
24 -0.0438332 0.0350655
316 -0.0188579 -0.00319506
54 -0.0147977 -0.0173242
378 -0.00869416 -0.0146533
117 0.0358184 0.00684254
9 -0.0129888 0.00446239
102 -0.020505 -0.0149265
291 0.0319576 -0.0333248
370 0.0297063 0.00375124
55 0.0236848 0.0265414
51 0.00938987 -0.00441914
30 0.0275154 0.0202695
82 -0.0280801 0.00507377
1 -0.0125661 -0.0102805
12 -0.033895 0.0475895
143 0.0175838 -0.00266515
390 -0.0087411 -0.04002
33 -0.013023 0.0153239
317 0.0383876 0.00424132
56 0.0166935 -0.00209235
396 -0.040976 -0.0376701
239 -0.0238068 0.0260721
380 -0.0316777 -0.00708634
328 -0.0203352 0.00402328
60 0.0300249 0.0419182
104 0.0453179 -0.0228783
162 -0.0110974 -0.0232585
145 0.0377561 -0.036634
26 0.00792564 0.0516221
206 -0.00211462 -0.029269
91 0.0171896 -0.00484694
271 0.0443245 -0.042066
132 -0.0355013 -0.0239955
37 -0.0197358 0.0128466
209 0.0276174 0.0451309
379 0.0135755 -0.0428166
138 0.0566179 -0.0505108
99 0.0186201 0.0182492
139 0.0268464 -0.00414015
201 0.0420434 -0.0214817
45 0.00478751 0.0289501
87 0.0224807 0.00763155
67 0.0207585 -0.0153518
68 -0.0222002 0.0422542
75 -0.00164032 -0.0294996
152 0.0132653 0.0197485
178 0.0134794 0.0457203
38 -0.0389693 0.0202469
177 -0.0341809 0.0690432
97 -0.017492 0.0532576
81 0.0103368 -0.0132265
44 0.00529519 0.0417253
52 -0.0510574 0.0459256
25 -0.0299244 -0.00134154
255 -0.0131651 0.0229988
115 0.0279665 -0.0395718
76 -0.010866 -0.0124419
281 0.0246914 0.0820719
79 -0.0459487 0.00447275
83 0.0290609 -0.00434146
119 0.00503923 0.0708334
43 -0.0578803 -0.0450421
275 0.0286043 -0.0164174
366 0.0757702 -0.037182
22 0.053802 0.0136679
186 0.00769063 0.00285749
123 0.0223119 -0.0188145
151 0.0238031 0.0147133
136 -0.00775042 -0.0365149
174 0.0618347 -0.0192751
121 0.0340994 -0.00483346
80 0.0578235 -0.00191618
78 -0.0161517 0.0368457
77 -0.0248668 0.0305248
4 -0.0224721 -0.0412767
159 0.0156638 0.0242091
208 0.00268791 0.045802
195 0.0198891 -0.0262991
173 0.00466353 -0.0420015
58 0.0714043 0.0139643
137 -0.00574615 -0.0471738
5 0.0132404 -0.00666932
169 -0.0343404 0.012944
69 0.0325784 -0.0282671
182 -0.0116547 0.0828643
7 0.0339891 -0.00267426
356 0.0145533 0.0395539
103 0.0198885 -0.0464437
179 0.0406633 -0.00895286
120 0.0356609 0.00520687
141 -0.020695 0.0124966
164 -0.0300743 -0.00641714
65 -0.0229994 0.0130752
46 -0.054356 0.0378808
14 0.00239094 0.0714566
155 0.00971295 0.0212932
111 0.0150336 0.0277858
134 0.0218464 0.0209908
218 0.0454973 -0.0538694
235 0.0123137 -0.0278822
23 -0.0352007 0.0173871
385 0.0110351 0.0154533
98 0.0355273 0.0426449
204 -0.0144184 -0.0137705
113 -0.0153891 -0.0323728
131 -0.0175184 -0.0296794
197 0.00945837 -0.00993937
175 0.0430249 -0.02673
112 0.0262478 -0.0287986
36 0.0129946 0.032233
217 0.0549541 0.00554205
254 0.0807254 0.0262953
181 0.00931058 -0.0141587
221 -0.0442399 0.00803755
227 -0.0350863 -0.0167623
128 0.0243372 -0.0562917
66 0.0308983 -0.00861511
85 0.00872412 0.0106447
334 -0.00948644 -0.0361529
172 0.00288371 0.0234252
194 -0.0176334 0.0164697
161 0.0562397 0.0319739
324 -0.0678933 -0.0212954
107 -0.017714 -0.0312081
124 -0.0121891 0.000803705
335 0.00649925 0.000935643
50 0.0541769 0.00854728
192 -0.0391847 0.00387342
144 0.028506 -0.00137782
202 0.0478311 0.00874238
301 -0.0837424 0.0333252
157 -0.013616 -0.0424492
125 0.000836394 0.0530753
183 -0.00535452 0.00886813
171 -0.0309598 -0.0124406
88 0.0499623 0.014577
213 0.0234712 0.0210916
70 0.0140296 -0.0232459
226 -0.013333 -0.0140938
296 0.0294722 -0.00257466
116 0.00741722 -0.00288813
214 -0.0417104 -0.0109669
285 -0.00314789 0.00988373
233 -0.00709439 -0.0174319
219 -0.0204961 0.0440044
154 0.0209057 -0.0322154
105 0.0322874 -0.0192924
126 0.0265877 0.00643393
266 0.0280657 -0.00863575
148 0.00520487 0.000389093
149 0.0234156 -0.013523
92 -0.0059446 -0.0380711
200 0.0410074 0.0310777
158 0.0386154 -0.0127424
95 0.0323587 -0.0238034
252 0.0260714 0.0196214
282 0.00467422 0.014355
133 -0.0473817 -0.00599132
167 0.0195412 0.0461195
142 -0.0138059 0.0240919
297 0.00988747 -0.0172818
307 -0.0545295 -0.0257551
260 -0.0143816 0.0210505
185 -0.0455913 0.0630486
323 0.00615106 0.0163931
180 0.0298885 -0.0380391
28 -0.03899 0.0416141
170 -0.0247088 -0.0312077
216 -0.0223411 0.0235819
374 -0.0206018 0.0161871
215 0.00956305 -0.0178674
163 0.0296227 -0.011334
318 0.0415562 0.0193748
261 -0.0480617 -0.0447762
100 0.00814623 -0.0465281
199 -0.0169551 -0.000856802
146 0.0139376 -0.00247199
236 -0.0140963 0.01573
253 -0.0352469 -0.0106126
292 -0.0174171 0.0119411
310 -0.038524 0.00198102
193 -0.0185166 0.027529
284 0.0279119 0.0410507
196 -0.0190976 -0.0149213
244 0.0355138 0.0229614
279 0.0039064 0.018099
393 0.0175513 -0.0158274
118 0.0386085 -0.0101563
240 0.0245957 0.00932832
166 0.042716 0.0722472
188 0.0662749 0.0228854
147 -0.00582156 0.0120498
150 0.0271981 0.0734007
135 0.00726942 -0.00425209
256 0.0280785 -0.0052832
165 -0.00383115 -0.00908594
238 -8.69994e-05 -0.00576998
384 -0.0543052 -0.0487692
241 0.0127563 0.00690896
273 0.00655957 0.0194396
313 -0.0397694 -0.0244237
156 -0.0370811 -0.033554
84 -0.0132955 -0.0155682
299 -0.00552967 0.0141129
248 -0.00819643 -0.00128848
309 -0.0171739 -0.010801
34 0.00685054 -0.00866836
184 0.0168906 -0.0585088
263 0.00012822 -0.0298107
245 0.0159447 -0.0533381
212 0.0395934 -0.027912
190 0.0259769 0.0105213
286 -0.0266799 -0.00753243
278 0.0485488 0.0356003
394 -0.0128397 0.0145417
205 -0.0603887 0.0411568
234 0.00436469 0.076205
231 0.0105525 0.00617604
327 0.0459693 -0.0304134
364 0.020857 0.00912782
294 0.00297927 0.0797398
211 -0.0168507 0.0279802
269 0.00695909 -0.000260531
277 0.00968949 0.0202408
191 -0.0468558 0.0124198
237 0.0375867 -0.0162702
300 0.00909118 0.00576891
198 -0.0158201 0.0659825
398 -0.0127529 0.0182874
224 0.0444573 0.0314045
304 0.0244652 0.0240914
207 0.0175721 0.00390386
264 0.01628 0.000171282
48 -0.0228697 -0.00408288
32 0.019753 0.0191042
359 -0.00732826 -0.0660712
397 -0.0150313 -0.0576714
276 -0.025374 0.004109
358 -0.0119545 0.00771559
242 0.0372592 0.00491392
243 -0.0153646 0.000230544
272 -0.0605501 0.0134962
265 -0.0143289 0.0111232
386 0.0488454 -0.0129269
289 0.0156432 -0.0100568
373 0.000139008 0.0390417
329 0.0116753 -0.0207416
314 -0.0260235 0.0339275
176 0.0590388 -0.00431661
302 0.0509097 0.0228416
129 0.0425738 0.0348812
267 -0.00176774 -0.018499
287 -0.0622108 0.0546058
3 -0.0804301 0.0363328
203 -0.00988607 -0.00430979
251 -0.00718112 -0.00935923
262 0.0166422 -0.0288333
49 -0.024056 -0.022092
365 -0.0151899 -0.0224448
168 0.0279405 0.0445462
333 -0.0318119 -0.0375723
229 -0.0111663 0.0523177
16 0.00632128 -0.00214013
319 -0.023069 -0.0366408
375 0.0215009 0.00396005
341 0.0112559 0.0323767
340 -0.0191436 -0.0026628
274 -0.0562146 -0.0368702
222 0.0491088 0.107816
360 0.0204945 -0.0375746
322 0.018195 -0.0369758
344 0.000346251 0.0678681
348 0.0287397 -0.00457825
392 -0.0214496 0.0600116
90 -0.00578861 0.0265423
336 0.0134978 -0.020155
311 0.0126101 -0.0122548
15 -0.00549396 0.00884957
220 0.0128226 -0.0345259
354 -0.0690755 0.0232876
343 -0.0133844 0.00538775
321 -0.0406891 0.0360786
382 -0.0293202 0.0458723
305 -0.000549459 0.0116205
247 0.0298262 0.0252547
13 0.0274752 0.0568973
306 -0.0201906 0.0394174
228 -0.0171269 0.0189444
189 -0.0373988 0.0198756
312 0.0544578 -0.00264503
61 -0.0571993 0.00485314
399 -0.035711 0.0762435
369 -0.0108767 0.0609478
367 -0.00368789 -0.00140325
371 -0.0302823 -0.00348299
325 0.0345583 0.0218069
246 0.0154031 0.0286716
349 0.0180729 0.0110871
230 0.00617209 -0.0256845
290 -0.0170834 0.00262557
377 -0.00515567 -0.0553634
332 0.0275567 -0.00987817
53 0.019182 -0.0269848
295 -0.00832511 -0.0278425
338 -0.0389994 0.0138277
21 -0.0471501 -0.0249503
346 -0.0208524 -0.0399564
372 0.0532578 0.030832
225 0.0140824 0.0838289
250 0.0274406 -0.0476515
71 0.0564873 -0.000536614
74 0.00226528 -0.00872894
39 -0.0638997 0.0565501
18 0.0127331 -0.0402256
232 -0.0103283 -0.0111259
35 -0.00628687 0.0109897
345 0.0216137 -0.0452007
47 -0.0149981 -0.0309356
64 -0.0106047 0.0325098
347 0.0147144 -0.00344197
249 0.0711999 -0.00676734
114 -0.0322187 0.0531898
308 0.0272724 0.0676086
122 0.0538824 0.0216102
59 -0.0453777 0.0407722
258 -0.0868525 -0.0348937
257 -0.0161872 0.0518734
381 -0.0396884 -0.00733642
351 -7.48588e-05 -0.0194418
187 -0.0584008 -0.00543906
388 0.0267601 0.00649708
352 0.035168 0.0849766
31 0.0485743 0.00665297
17 -0.0415076 -0.0368043
331 -0.0159046 0.00895126
41 0.014277 0.0441421
363 0.00441451 0.0136058
86 0.00712624 -0.0193425
326 -0.0503358 0.0143014
298 -0.0233338 -0.0186553
108 -0.0149192 0.0144062
93 0.036155 -0.0617084
389 -0.076774 -0.0100619
357 0.0484411 -0.0514486
383 -0.0311695 0.0169749
320 -0.0311968 0.0144653
293 -0.0465717 0.0332112
101 0.0611903 -0.010864
210 0.00680524 0.0159927
10 -0.0140585 0.00227498
337 0.0346574 -0.0179976
11 -0.0151065 -0.00503488
27 0.0259308 0.0326988
400 -0.0179572 0.0119945
368 -0.0358399 0.00999544
40 0.00633524 -0.0128826
376 -0.0133099 -0.020372
395 0.00823546 -0.010364
387 -0.0395211 -0.0467285
280 -0.0155768 0.0359877
