ITEM: TIMESTEP
0
ITEM: NUMBER OF ATOMS
400
ITEM: BOX BOUNDS pp pp pp
0.0000000000000000e+00 2.0000000000000000e+01
0.0000000000000000e+00 2.0000000000000000e+01
-5.0000000000000000e-01 5.0000000000000000e-01
ITEM: ATOMS id type xs ys zs
1 1 0.025 0.025 0.5
2 1 0.075 0.025 0.5
3 1 0.125 0.025 0.5
4 1 0.175 0.025 0.5
5 1 0.225 0.025 0.5
6 1 0.275 0.025 0.5
7 1 0.325 0.025 0.5
8 1 0.375 0.025 0.5
9 1 0.425 0.025 0.5
10 1 0.475 0.025 0.5
11 1 0.525 0.025 0.5
12 1 0.575 0.025 0.5
13 1 0.625 0.025 0.5
14 1 0.675 0.025 0.5
15 1 0.725 0.025 0.5
16 1 0.775 0.025 0.5
17 1 0.825 0.025 0.5
18 1 0.875 0.025 0.5
19 1 0.925 0.025 0.5
20 1 0.975 0.025 0.5
21 1 0.025 0.075 0.5
22 1 0.075 0.075 0.5
23 1 0.125 0.075 0.5
24 1 0.175 0.075 0.5
25 1 0.225 0.075 0.5
26 1 0.275 0.075 0.5
27 1 0.325 0.075 0.5
28 1 0.375 0.075 0.5
29 1 0.425 0.075 0.5
30 1 0.475 0.075 0.5
31 1 0.525 0.075 0.5
32 1 0.575 0.075 0.5
33 1 0.625 0.075 0.5
34 1 0.675 0.075 0.5
35 1 0.725 0.075 0.5
36 1 0.775 0.075 0.5
37 1 0.825 0.075 0.5
38 1 0.875 0.075 0.5
39 1 0.925 0.075 0.5
40 1 0.975 0.075 0.5
41 1 0.025 0.125 0.5
42 1 0.075 0.125 0.5
43 1 0.125 0.125 0.5
44 1 0.175 0.125 0.5
45 1 0.225 0.125 0.5
46 1 0.275 0.125 0.5
47 1 0.325 0.125 0.5
48 1 0.375 0.125 0.5
49 1 0.425 0.125 0.5
50 1 0.475 0.125 0.5
51 1 0.525 0.125 0.5
52 1 0.575 0.125 0.5
53 1 0.625 0.125 0.5
54 1 0.675 0.125 0.5
55 1 0.725 0.125 0.5
56 1 0.775 0.125 0.5
57 1 0.825 0.125 0.5
58 1 0.875 0.125 0.5
59 1 0.925 0.125 0.5
60 1 0.975 0.125 0.5
61 1 0.025 0.175 0.5
62 1 0.075 0.175 0.5
63 1 0.125 0.175 0.5
64 1 0.175 0.175 0.5
65 1 0.225 0.175 0.5
66 1 0.275 0.175 0.5
67 1 0.325 0.175 0.5
68 1 0.375 0.175 0.5
69 1 0.425 0.175 0.5
70 1 0.475 0.175 0.5
71 1 0.525 0.175 0.5
72 1 0.575 0.175 0.5
73 1 0.625 0.175 0.5
74 1 0.675 0.175 0.5
75 1 0.725 0.175 0.5
76 1 0.775 0.175 0.5
77 1 0.825 0.175 0.5
78 1 0.875 0.175 0.5
79 1 0.925 0.175 0.5
80 1 0.975 0.175 0.5
81 1 0.025 0.225 0.5
82 1 0.075 0.225 0.5
83 1 0.125 0.225 0.5
84 1 0.175 0.225 0.5
85 1 0.225 0.225 0.5
86 1 0.275 0.225 0.5
87 1 0.325 0.225 0.5
88 1 0.375 0.225 0.5
89 1 0.425 0.225 0.5
90 1 0.475 0.225 0.5
91 1 0.525 0.225 0.5
92 1 0.575 0.225 0.5
93 1 0.625 0.225 0.5
94 1 0.675 0.225 0.5
95 1 0.725 0.225 0.5
96 1 0.775 0.225 0.5
97 1 0.825 0.225 0.5
98 1 0.875 0.225 0.5
99 1 0.925 0.225 0.5
100 1 0.975 0.225 0.5
101 1 0.025 0.275 0.5
102 1 0.075 0.275 0.5
103 1 0.125 0.275 0.5
104 1 0.175 0.275 0.5
105 1 0.225 0.275 0.5
106 1 0.275 0.275 0.5
107 1 0.325 0.275 0.5
108 1 0.375 0.275 0.5
109 1 0.425 0.275 0.5
110 1 0.475 0.275 0.5
111 1 0.525 0.275 0.5
112 1 0.575 0.275 0.5
113 1 0.625 0.275 0.5
114 1 0.675 0.275 0.5
115 1 0.725 0.275 0.5
116 1 0.775 0.275 0.5
117 1 0.825 0.275 0.5
118 1 0.875 0.275 0.5
119 1 0.925 0.275 0.5
120 1 0.975 0.275 0.5
121 1 0.025 0.325 0.5
122 1 0.075 0.325 0.5
123 1 0.125 0.325 0.5
124 1 0.175 0.325 0.5
125 1 0.225 0.325 0.5
126 1 0.275 0.325 0.5
127 1 0.325 0.325 0.5
128 1 0.375 0.325 0.5
129 1 0.425 0.325 0.5
130 1 0.475 0.325 0.5
131 1 0.525 0.325 0.5
132 1 0.575 0.325 0.5
133 1 0.625 0.325 0.5
134 1 0.675 0.325 0.5
135 1 0.725 0.325 0.5
136 1 0.775 0.325 0.5
137 1 0.825 0.325 0.5
138 1 0.875 0.325 0.5
139 1 0.925 0.325 0.5
140 1 0.975 0.325 0.5
141 1 0.025 0.375 0.5
142 1 0.075 0.375 0.5
143 1 0.125 0.375 0.5
144 1 0.175 0.375 0.5
145 1 0.225 0.375 0.5
146 1 0.275 0.375 0.5
147 1 0.325 0.375 0.5
148 1 0.375 0.375 0.5
149 1 0.425 0.375 0.5
150 1 0.475 0.375 0.5
151 1 0.525 0.375 0.5
152 1 0.575 0.375 0.5
153 1 0.625 0.375 0.5
154 1 0.675 0.375 0.5
155 1 0.725 0.375 0.5
156 1 0.775 0.375 0.5
157 1 0.825 0.375 0.5
158 1 0.875 0.375 0.5
159 1 0.925 0.375 0.5
160 1 0.975 0.375 0.5
161 1 0.025 0.425 0.5
162 1 0.075 0.425 0.5
163 1 0.125 0.425 0.5
164 1 0.175 0.425 0.5
165 1 0.225 0.425 0.5
166 1 0.275 0.425 0.5
167 1 0.325 0.425 0.5
168 1 0.375 0.425 0.5
169 1 0.425 0.425 0.5
170 1 0.475 0.425 0.5
171 1 0.525 0.425 0.5
172 1 0.575 0.425 0.5
173 1 0.625 0.425 0.5
174 1 0.675 0.425 0.5
175 1 0.725 0.425 0.5
176 1 0.775 0.425 0.5
177 1 0.825 0.425 0.5
178 1 0.875 0.425 0.5
179 1 0.925 0.425 0.5
180 1 0.975 0.425 0.5
181 1 0.025 0.475 0.5
182 1 0.075 0.475 0.5
183 1 0.125 0.475 0.5
184 1 0.175 0.475 0.5
185 1 0.225 0.475 0.5
186 1 0.275 0.475 0.5
187 1 0.325 0.475 0.5
188 1 0.375 0.475 0.5
189 1 0.425 0.475 0.5
190 1 0.475 0.475 0.5
191 1 0.525 0.475 0.5
192 1 0.575 0.475 0.5
193 1 0.625 0.475 0.5
194 1 0.675 0.475 0.5
195 1 0.725 0.475 0.5
196 1 0.775 0.475 0.5
197 1 0.825 0.475 0.5
198 1 0.875 0.475 0.5
199 1 0.925 0.475 0.5
200 1 0.975 0.475 0.5
201 1 0.025 0.525 0.5
202 1 0.075 0.525 0.5
203 1 0.125 0.525 0.5
204 1 0.175 0.525 0.5
205 1 0.225 0.525 0.5
206 1 0.275 0.525 0.5
207 1 0.325 0.525 0.5
208 1 0.375 0.525 0.5
209 1 0.425 0.525 0.5
210 1 0.475 0.525 0.5
211 1 0.525 0.525 0.5
212 1 0.575 0.525 0.5
213 1 0.625 0.525 0.5
214 1 0.675 0.525 0.5
215 1 0.725 0.525 0.5
216 1 0.775 0.525 0.5
217 1 0.825 0.525 0.5
218 1 0.875 0.525 0.5
219 1 0.925 0.525 0.5
220 1 0.975 0.525 0.5
221 1 0.025 0.575 0.5
222 1 0.075 0.575 0.5
223 1 0.125 0.575 0.5
224 1 0.175 0.575 0.5
225 1 0.225 0.575 0.5
226 1 0.275 0.575 0.5
227 1 0.325 0.575 0.5
228 1 0.375 0.575 0.5
229 1 0.425 0.575 0.5
230 1 0.475 0.575 0.5
231 1 0.525 0.575 0.5
232 1 0.575 0.575 0.5
233 1 0.625 0.575 0.5
234 1 0.675 0.575 0.5
235 1 0.725 0.575 0.5
236 1 0.775 0.575 0.5
237 1 0.825 0.575 0.5
238 1 0.875 0.575 0.5
239 1 0.925 0.575 0.5
240 1 0.975 0.575 0.5
241 1 0.025 0.625 0.5
242 1 0.075 0.625 0.5
243 1 0.125 0.625 0.5
244 1 0.175 0.625 0.5
245 1 0.225 0.625 0.5
246 1 0.275 0.625 0.5
247 1 0.325 0.625 0.5
248 1 0.375 0.625 0.5
249 1 0.425 0.625 0.5
250 1 0.475 0.625 0.5
251 1 0.525 0.625 0.5
252 1 0.575 0.625 0.5
253 1 0.625 0.625 0.5
254 1 0.675 0.625 0.5
255 1 0.725 0.625 0.5
256 1 0.775 0.625 0.5
257 1 0.825 0.625 0.5
258 1 0.875 0.625 0.5
259 1 0.925 0.625 0.5
260 1 0.975 0.625 0.5
261 1 0.025 0.675 0.5
262 1 0.075 0.675 0.5
263 1 0.125 0.675 0.5
264 1 0.175 0.675 0.5
265 1 0.225 0.675 0.5
266 1 0.275 0.675 0.5
267 1 0.325 0.675 0.5
268 1 0.375 0.675 0.5
269 1 0.425 0.675 0.5
270 1 0.475 0.675 0.5
271 1 0.525 0.675 0.5
272 1 0.575 0.675 0.5
273 1 0.625 0.675 0.5
274 1 0.675 0.675 0.5
275 1 0.725 0.675 0.5
276 1 0.775 0.675 0.5
277 1 0.825 0.675 0.5
278 1 0.875 0.675 0.5
279 1 0.925 0.675 0.5
280 1 0.975 0.675 0.5
281 1 0.025 0.725 0.5
282 1 0.075 0.725 0.5
283 1 0.125 0.725 0.5
284 1 0.175 0.725 0.5
285 1 0.225 0.725 0.5
286 1 0.275 0.725 0.5
287 1 0.325 0.725 0.5
288 1 0.375 0.725 0.5
289 1 0.425 0.725 0.5
290 1 0.475 0.725 0.5
291 1 0.525 0.725 0.5
292 1 0.575 0.725 0.5
293 1 0.625 0.725 0.5
294 1 0.675 0.725 0.5
295 1 0.725 0.725 0.5
296 1 0.775 0.725 0.5
297 1 0.825 0.725 0.5
298 1 0.875 0.725 0.5
299 1 0.925 0.725 0.5
300 1 0.975 0.725 0.5
301 1 0.025 0.775 0.5
302 1 0.075 0.775 0.5
303 1 0.125 0.775 0.5
304 1 0.175 0.775 0.5
305 1 0.225 0.775 0.5
306 1 0.275 0.775 0.5
307 1 0.325 0.775 0.5
308 1 0.375 0.775 0.5
309 1 0.425 0.775 0.5
310 1 0.475 0.775 0.5
311 1 0.525 0.775 0.5
312 1 0.575 0.775 0.5
313 1 0.625 0.775 0.5
314 1 0.675 0.775 0.5
315 1 0.725 0.775 0.5
316 1 0.775 0.775 0.5
317 1 0.825 0.775 0.5
318 1 0.875 0.775 0.5
319 1 0.925 0.775 0.5
320 1 0.975 0.775 0.5
321 1 0.025 0.825 0.5
322 1 0.075 0.825 0.5
323 1 0.125 0.825 0.5
324 1 0.175 0.825 0.5
325 1 0.225 0.825 0.5
326 1 0.275 0.825 0.5
327 1 0.325 0.825 0.5
328 1 0.375 0.825 0.5
329 1 0.425 0.825 0.5
330 1 0.475 0.825 0.5
331 1 0.525 0.825 0.5
332 1 0.575 0.825 0.5
333 1 0.625 0.825 0.5
334 1 0.675 0.825 0.5
335 1 0.725 0.825 0.5
336 1 0.775 0.825 0.5
337 1 0.825 0.825 0.5
338 1 0.875 0.825 0.5
339 1 0.925 0.825 0.5
340 1 0.975 0.825 0.5
341 1 0.025 0.875 0.5
342 1 0.075 0.875 0.5
343 1 0.125 0.875 0.5
344 1 0.175 0.875 0.5
345 1 0.225 0.875 0.5
346 1 0.275 0.875 0.5
347 1 0.325 0.875 0.5
348 1 0.375 0.875 0.5
349 1 0.425 0.875 0.5
350 1 0.475 0.875 0.5
351 1 0.525 0.875 0.5
352 1 0.575 0.875 0.5
353 1 0.625 0.875 0.5
354 1 0.675 0.875 0.5
355 1 0.725 0.875 0.5
356 1 0.775 0.875 0.5
357 1 0.825 0.875 0.5
358 1 0.875 0.875 0.5
359 1 0.925 0.875 0.5
360 1 0.975 0.875 0.5
361 1 0.025 0.925 0.5
362 1 0.075 0.925 0.5
363 1 0.125 0.925 0.5
364 1 0.175 0.925 0.5
365 1 0.225 0.925 0.5
366 1 0.275 0.925 0.5
367 1 0.325 0.925 0.5
368 1 0.375 0.925 0.5
369 1 0.425 0.925 0.5
370 1 0.475 0.925 0.5
371 1 0.525 0.925 0.5
372 1 0.575 0.925 0.5
373 1 0.625 0.925 0.5
374 1 0.675 0.925 0.5
375 1 0.725 0.925 0.5
376 1 0.775 0.925 0.5
377 1 0.825 0.925 0.5
378 1 0.875 0.925 0.5
379 1 0.925 0.925 0.5
380 1 0.975 0.925 0.5
381 1 0.025 0.975 0.5
382 1 0.075 0.975 0.5
383 1 0.125 0.975 0.5
384 1 0.175 0.975 0.5
385 1 0.225 0.975 0.5
386 1 0.275 0.975 0.5
387 1 0.325 0.975 0.5
388 1 0.375 0.975 0.5
389 1 0.425 0.975 0.5
390 1 0.475 0.975 0.5
391 1 0.525 0.975 0.5
392 1 0.575 0.975 0.5
393 1 0.625 0.975 0.5
394 1 0.675 0.975 0.5
395 1 0.725 0.975 0.5
396 1 0.775 0.975 0.5
397 1 0.825 0.975 0.5
398 1 0.875 0.975 0.5
399 1 0.925 0.975 0.5
400 1 0.975 0.975 0.5
ITEM: TIMESTEP
100000
ITEM: NUMBER OF ATOMS
400
ITEM: BOX BOUNDS pp pp pp
0.0000000000000000e+00 2.0000000000000000e+01
0.0000000000000000e+00 2.0000000000000000e+01
-5.0000000000000000e-01 5.0000000000000000e-01
ITEM: ATOMS id type xs ys zs
1 1 0.0245258 0.0165016 0.5
2 1 0.0816722 0.0284068 0.5
7 1 0.324222 0.0242418 0.5
8 1 0.378121 0.0278347 0.5
11 1 0.519919 0.0184427 0.5
12 1 0.579194 0.0260344 0.5
13 1 0.620791 0.0215487 0.5
14 1 0.670789 0.0191251 0.5
15 1 0.729894 0.0185527 0.5
16 1 0.783804 0.0215719 0.5
17 1 0.824171 0.018787 0.5
18 1 0.872746 0.024607 0.5
19 1 0.921504 0.0193167 0.5
20 1 0.966445 0.0189239 0.5
3 1 0.126471 0.0296776 0.5
4 1 0.18301 0.0264064 0.5
5 1 0.225476 0.0329673 0.5
6 1 0.259975 0.0316136 0.5
9 1 0.423492 0.0321305 0.5
10 1 0.480395 0.0299977 0.5
21 1 0.0216501 0.0720785 0.5
22 1 0.0763852 0.0591829 0.5
24 1 0.185408 0.0729943 0.5
25 1 0.229489 0.0715874 0.5
26 1 0.266277 0.0746561 0.5
27 1 0.31576 0.0756904 0.5
29 1 0.430615 0.0781821 0.5
30 1 0.480848 0.0729818 0.5
31 1 0.52746 0.0782175 0.5
32 1 0.574438 0.0764682 0.5
33 1 0.61797 0.0657601 0.5
34 1 0.684456 0.0794053 0.5
35 1 0.725959 0.0705773 0.5
36 1 0.767352 0.0676119 0.5
37 1 0.831326 0.0818666 0.5
38 1 0.869063 0.0771247 0.5
39 1 0.915001 0.0719957 0.5
40 1 0.978871 0.0704639 0.5
23 1 0.118376 0.0894426 0.5
28 1 0.366063 0.0863967 0.5
41 1 0.0252165 0.131532 0.5
42 1 0.0763808 0.131022 0.5
43 1 0.121744 0.121742 0.5
44 1 0.177631 0.131977 0.5
45 1 0.219633 0.126225 0.5
46 1 0.282068 0.126575 0.5
47 1 0.326053 0.117357 0.5
48 1 0.37149 0.122194 0.5
49 1 0.423785 0.127687 0.5
50 1 0.479535 0.121976 0.5
51 1 0.522092 0.12634 0.5
52 1 0.566774 0.1273 0.5
53 1 0.616499 0.123754 0.5
54 1 0.671298 0.125666 0.5
55 1 0.725011 0.124376 0.5
56 1 0.771859 0.120636 0.5
57 1 0.824226 0.115785 0.5
58 1 0.87459 0.124234 0.5
59 1 0.920172 0.131942 0.5
60 1 0.97202 0.130869 0.5
61 1 0.0255514 0.169834 0.5
62 1 0.0775264 0.167315 0.5
63 1 0.118774 0.168138 0.5
64 1 0.172148 0.172619 0.5
65 1 0.229666 0.178955 0.5
66 1 0.264199 0.175811 0.5
67 1 0.326168 0.167873 0.5
68 1 0.37078 0.174866 0.5
69 1 0.41959 0.168921 0.5
70 1 0.468005 0.17336 0.5
71 1 0.518444 0.181681 0.5
72 1 0.581282 0.177397 0.5
73 1 0.623566 0.168026 0.5
74 1 0.673506 0.183833 0.5
75 1 0.720954 0.180336 0.5
76 1 0.779548 0.162175 0.5
77 1 0.827073 0.17659 0.5
78 1 0.86091 0.171777 0.5
79 1 0.919349 0.166134 0.5
80 1 0.966791 0.163158 0.5
81 1 0.0241916 0.228212 0.5
82 1 0.0710186 0.226114 0.5
83 1 0.126371 0.228882 0.5
84 1 0.173354 0.215741 0.5
85 1 0.233179 0.224699 0.5
86 1 0.274669 0.221965 0.5
87 1 0.315211 0.221449 0.5
88 1 0.372854 0.235799 0.5
89 1 0.424401 0.215536 0.5
90 1 0.465844 0.225562 0.5
91 1 0.529126 0.225066 0.5
92 1 0.582193 0.222878 0.5
93 1 0.628455 0.219105 0.5
94 1 0.673628 0.226374 0.5
95 1 0.721176 0.228929 0.5
96 1 0.782973 0.208433 0.5
97 1 0.817121 0.228033 0.5
98 1 0.877601 0.222905 0.5
99 1 0.92043 0.22643 0.5
100 1 0.969489 0.227598 0.5
101 1 0.0180664 0.274496 0.5
102 1 0.079146 0.276635 0.5
103 1 0.131404 0.263578 0.5
104 1 0.166326 0.26953 0.5
105 1 0.220958 0.268275 0.5
106 1 0.277952 0.276559 0.5
107 1 0.323662 0.272 0.5
108 1 0.374259 0.277767 0.5
109 1 0.42355 0.27399 0.5
110 1 0.464497 0.280739 0.5
111 1 0.520036 0.274112 0.5
112 1 0.581735 0.282477 0.5
113 1 0.626609 0.280575 0.5
114 1 0.682798 0.265782 0.5
115 1 0.710753 0.269781 0.5
116 1 0.785406 0.271702 0.5
117 1 0.809492 0.280079 0.5
118 1 0.872727 0.273539 0.5
119 1 0.937976 0.272901 0.5
120 1 0.974128 0.272603 0.5
121 1 0.0325909 0.336278 0.5
122 1 0.0653669 0.3306 0.5
123 1 0.119704 0.332374 0.5
124 1 0.168756 0.312482 0.5
125 1 0.222171 0.333783 0.5
126 1 0.270775 0.325817 0.5
127 1 0.321707 0.328295 0.5
128 1 0.385381 0.33284 0.5
129 1 0.417453 0.323056 0.5
130 1 0.480536 0.343805 0.5
131 1 0.523955 0.330969 0.5
132 1 0.582969 0.313801 0.5
133 1 0.628313 0.325377 0.5
134 1 0.684128 0.318924 0.5
135 1 0.725883 0.321494 0.5
136 1 0.792865 0.317288 0.5
137 1 0.825597 0.322829 0.5
138 1 0.877381 0.321618 0.5
139 1 0.921884 0.325364 0.5
140 1 0.974887 0.326485 0.5
141 1 0.0280741 0.373992 0.5
142 1 0.0696148 0.376508 0.5
143 1 0.122864 0.373658 0.5
144 1 0.182183 0.388621 0.5
145 1 0.220439 0.382913 0.5
146 1 0.286664 0.386443 0.5
147 1 0.328725 0.37173 0.5
148 1 0.373975 0.384846 0.5
149 1 0.417959 0.378363 0.5
150 1 0.485217 0.374737 0.5
151 1 0.540114 0.377898 0.5
152 1 0.58052 0.369726 0.5
153 1 0.632578 0.378862 0.5
154 1 0.67292 0.391855 0.5
155 1 0.721242 0.371601 0.5
156 1 0.780279 0.372933 0.5
157 1 0.8402 0.384107 0.5
158 1 0.871684 0.368353 0.5
159 1 0.922881 0.38258 0.5
160 1 0.975028 0.368512 0.5
162 1 0.0784725 0.417915 0.5
164 1 0.176807 0.420209 0.5
169 1 0.430494 0.414486 0.5
175 1 0.722256 0.41668 0.5
178 1 0.87596 0.415324 0.5
161 1 0.0257099 0.42631 0.5
163 1 0.123921 0.435767 0.5
165 1 0.222997 0.430242 0.5
166 1 0.280084 0.434035 0.5
167 1 0.322543 0.431956 0.5
168 1 0.373447 0.430426 0.5
170 1 0.474727 0.425764 0.5
171 1 0.523938 0.429487 0.5
172 1 0.570185 0.416703 0.5
173 1 0.62537 0.417805 0.5
174 1 0.679281 0.419189 0.5
176 1 0.778072 0.432899 0.5
177 1 0.821387 0.419927 0.5
179 1 0.931606 0.423509 0.5
180 1 0.983622 0.42652 0.5
182 1 0.084034 0.461123 0.5
186 1 0.264986 0.470809 0.5
187 1 0.327287 0.471677 0.5
190 1 0.477687 0.471328 0.5
191 1 0.533435 0.469632 0.5
193 1 0.629429 0.471349 0.5
197 1 0.828089 0.472527 0.5
199 1 0.923926 0.468102 0.5
181 1 0.0325425 0.476727 0.5
183 1 0.118134 0.475016 0.5
184 1 0.165461 0.485329 0.5
185 1 0.225701 0.475064 0.5
188 1 0.374586 0.479839 0.5
189 1 0.432758 0.478605 0.5
192 1 0.575605 0.476653 0.5
194 1 0.685912 0.472131 0.5
195 1 0.71992 0.475407 0.5
196 1 0.774532 0.478958 0.5
198 1 0.876597 0.472487 0.5
200 1 0.967085 0.476963 0.5
201 1 0.0190306 0.525007 0.5
203 1 0.11235 0.519903 0.5
205 1 0.224867 0.523237 0.5
206 1 0.284359 0.519102 0.5
207 1 0.325612 0.518566 0.5
208 1 0.376252 0.512157 0.5
209 1 0.428419 0.521376 0.5
212 1 0.568835 0.521512 0.5
214 1 0.672831 0.525861 0.5
215 1 0.728084 0.523616 0.5
218 1 0.87389 0.520108 0.5
220 1 0.972327 0.522771 0.5
202 1 0.0732793 0.532737 0.5
204 1 0.175385 0.536884 0.5
210 1 0.481233 0.531079 0.5
211 1 0.523668 0.533185 0.5
213 1 0.630144 0.528578 0.5
216 1 0.779411 0.527544 0.5
217 1 0.830246 0.530924 0.5
219 1 0.923081 0.532639 0.5
221 1 0.0281576 0.570599 0.5
222 1 0.0738578 0.57669 0.5
223 1 0.124068 0.577487 0.5
224 1 0.177307 0.573383 0.5
225 1 0.227149 0.574358 0.5
226 1 0.286854 0.571777 0.5
227 1 0.324035 0.578822 0.5
228 1 0.389964 0.574963 0.5
229 1 0.412996 0.564793 0.5
230 1 0.47825 0.581266 0.5
231 1 0.526768 0.573901 0.5
232 1 0.578921 0.571622 0.5
233 1 0.621867 0.574925 0.5
234 1 0.673288 0.56926 0.5
235 1 0.730875 0.567717 0.5
236 1 0.780407 0.570466 0.5
237 1 0.833474 0.576777 0.5
238 1 0.876425 0.577219 0.5
239 1 0.931827 0.588321 0.5
240 1 0.980925 0.579987 0.5
241 1 0.0230417 0.627344 0.5
242 1 0.0877364 0.633555 0.5
243 1 0.127712 0.617651 0.5
244 1 0.174679 0.625033 0.5
245 1 0.233838 0.629584 0.5
246 1 0.273237 0.615631 0.5
247 1 0.340547 0.629497 0.5
248 1 0.37544 0.628008 0.5
249 1 0.43243 0.629578 0.5
250 1 0.472992 0.624743 0.5
251 1 0.515948 0.613974 0.5
252 1 0.568019 0.615286 0.5
253 1 0.620616 0.629421 0.5
254 1 0.675792 0.623155 0.5
255 1 0.727378 0.614295 0.5
256 1 0.767274 0.623604 0.5
257 1 0.810899 0.625103 0.5
258 1 0.867422 0.631984 0.5
259 1 0.923225 0.620263 0.5
260 1 0.975613 0.628825 0.5
261 1 0.0235772 0.684895 0.5
262 1 0.0806997 0.679811 0.5
263 1 0.116088 0.682282 0.5
264 1 0.18132 0.677416 0.5
265 1 0.228602 0.680722 0.5
266 1 0.272562 0.670707 0.5
267 1 0.334202 0.676817 0.5
268 1 0.376524 0.673926 0.5
269 1 0.423632 0.675954 0.5
270 1 0.480036 0.68068 0.5
271 1 0.510772 0.669804 0.5
272 1 0.578757 0.668884 0.5
273 1 0.629428 0.685897 0.5
274 1 0.673608 0.668634 0.5
275 1 0.719607 0.685174 0.5
276 1 0.773653 0.68133 0.5
277 1 0.822543 0.665679 0.5
278 1 0.869639 0.681044 0.5
279 1 0.921075 0.670725 0.5
280 1 0.97471 0.67083 0.5
281 1 0.0256815 0.71416 0.5
282 1 0.0777312 0.727653 0.5
283 1 0.111403 0.724685 0.5
284 1 0.166709 0.737261 0.5
285 1 0.206821 0.717022 0.5
286 1 0.273716 0.716675 0.5
287 1 0.323986 0.716488 0.5
288 1 0.365984 0.719102 0.5
289 1 0.428981 0.728683 0.5
290 1 0.469098 0.729054 0.5
291 1 0.522485 0.735176 0.5
292 1 0.586303 0.725548 0.5
293 1 0.630321 0.724271 0.5
294 1 0.668098 0.719095 0.5
295 1 0.716698 0.719274 0.5
296 1 0.769293 0.731372 0.5
297 1 0.829877 0.715605 0.5
298 1 0.878225 0.727946 0.5
299 1 0.924188 0.723277 0.5
300 1 0.982432 0.720491 0.5
301 1 0.0305051 0.771633 0.5
302 1 0.087124 0.77727 0.5
303 1 0.132233 0.777666 0.5
304 1 0.168824 0.770571 0.5
305 1 0.227828 0.774403 0.5
306 1 0.289627 0.777724 0.5
307 1 0.322341 0.771008 0.5
308 1 0.366971 0.772631 0.5
309 1 0.426747 0.772722 0.5
310 1 0.48376 0.762533 0.5
311 1 0.536715 0.780393 0.5
312 1 0.564921 0.772544 0.5
313 1 0.627769 0.780818 0.5
314 1 0.665635 0.785497 0.5
315 1 0.736131 0.784309 0.5
316 1 0.787494 0.773314 0.5
317 1 0.823973 0.781082 0.5
318 1 0.875948 0.771434 0.5
319 1 0.922805 0.789821 0.5
320 1 0.979325 0.770511 0.5
321 1 0.0248661 0.833288 0.5
322 1 0.0761628 0.830939 0.5
323 1 0.127537 0.827446 0.5
324 1 0.18841 0.818608 0.5
325 1 0.222974 0.82664 0.5
326 1 0.262995 0.828442 0.5
327 1 0.32428 0.827573 0.5
328 1 0.385299 0.828327 0.5
329 1 0.421423 0.813619 0.5
330 1 0.480125 0.825219 0.5
331 1 0.527385 0.816644 0.5
332 1 0.573001 0.83279 0.5
333 1 0.626467 0.820071 0.5
334 1 0.668736 0.836298 0.5
335 1 0.729791 0.82691 0.5
336 1 0.777196 0.821899 0.5
337 1 0.819884 0.810603 0.5
338 1 0.872693 0.82863 0.5
339 1 0.920474 0.82061 0.5
340 1 0.984338 0.821651 0.5
341 1 0.0141768 0.87966 0.5
342 1 0.0796265 0.882361 0.5
343 1 0.117263 0.870553 0.5
344 1 0.184363 0.883767 0.5
345 1 0.225567 0.866499 0.5
346 1 0.273356 0.877417 0.5
347 1 0.326537 0.863561 0.5
348 1 0.369612 0.872979 0.5
349 1 0.420631 0.871296 0.5
350 1 0.455535 0.888027 0.5
351 1 0.523961 0.872397 0.5
352 1 0.577484 0.874505 0.5
353 1 0.608115 0.873194 0.5
354 1 0.676546 0.867309 0.5
355 1 0.729382 0.862897 0.5
356 1 0.787532 0.868258 0.5
357 1 0.811696 0.883345 0.5
358 1 0.866493 0.865427 0.5
359 1 0.924749 0.884582 0.5
360 1 0.96699 0.8686 0.5
362 1 0.0786404 0.919719 0.5
369 1 0.42582 0.911425 0.5
373 1 0.616161 0.914766 0.5
375 1 0.721078 0.919569 0.5
379 1 0.925439 0.91857 0.5
361 1 0.019732 0.920078 0.5
363 1 0.129562 0.924985 0.5
364 1 0.164887 0.922082 0.5
365 1 0.229738 0.923596 0.5
366 1 0.27687 0.919862 0.5
367 1 0.32697 0.930839 0.5
368 1 0.365264 0.920629 0.5
370 1 0.477705 0.928347 0.5
371 1 0.517025 0.932165 0.5
372 1 0.572798 0.929674 0.5
374 1 0.664581 0.926044 0.5
376 1 0.774457 0.921812 0.5
377 1 0.829255 0.922417 0.5
378 1 0.879295 0.91943 0.5
380 1 0.978647 0.919216 0.5
382 1 0.0743467 0.971074 0.5
385 1 0.223199 0.96743 0.5
387 1 0.321766 0.970776 0.5
389 1 0.424508 0.965868 0.5
391 1 0.535636 0.967363 0.5
396 1 0.773385 0.972867 0.5
397 1 0.82778 0.969562 0.5
400 1 0.983172 0.971132 0.5
381 1 0.0352534 0.976425 0.5
383 1 0.129024 0.976154 0.5
384 1 0.156812 0.977552 0.5
386 1 0.269463 0.977314 0.5
388 1 0.369034 0.987532 0.5
390 1 0.472634 0.976393 0.5
392 1 0.560705 0.972113 0.5
393 1 0.629073 0.982615 0.5
394 1 0.676738 0.970613 0.5
395 1 0.731596 0.985501 0.5
398 1 0.88304 0.978683 0.5
399 1 0.928129 0.972537 0.5
ITEM: TIMESTEP
200000
ITEM: NUMBER OF ATOMS
400
ITEM: BOX BOUNDS pp pp pp
0.0000000000000000e+00 2.0000000000000000e+01
0.0000000000000000e+00 2.0000000000000000e+01
-5.0000000000000000e-01 5.0000000000000000e-01
ITEM: ATOMS id type xs ys zs
1 1 0.0169439 0.0129916 0.5
2 1 0.0953515 0.0172052 0.5
4 1 0.195409 0.0264275 0.5
7 1 0.310772 0.0237078 0.5
388 1 0.344452 0.00347186 0.5
11 1 0.505459 0.0162919 0.5
13 1 0.626708 0.0180452 0.5
14 1 0.659216 0.0133956 0.5
15 1 0.726283 0.0240019 0.5
16 1 0.794855 0.0140395 0.5
17 1 0.817394 -0.000170395 0.5
18 1 0.873804 0.023888 0.5
19 1 0.900555 0.0104172 0.5
20 1 0.956112 0.013192 0.5
22 1 0.0862184 0.0483138 0.5
3 1 0.121936 0.0260754 0.5
5 1 0.220986 0.0448584 0.5
6 1 0.262552 0.0506361 0.5
8 1 0.381909 0.0391195 0.5
9 1 0.410652 0.0438228 0.5
10 1 0.484772 0.0343394 0.5
12 1 0.584195 0.0352755 0.5
21 1 0.022998 0.0703834 0.5
24 1 0.202282 0.0660401 0.5
25 1 0.227562 0.0723699 0.5
26 1 0.253678 0.0776091 0.5
33 1 0.606884 0.0552938 0.5
35 1 0.710418 0.0624492 0.5
36 1 0.770005 0.0662303 0.5
37 1 0.830558 0.0728521 0.5
38 1 0.873025 0.0735284 0.5
40 1 0.981478 0.0556949 0.5
23 1 0.100113 0.0983413 0.5
27 1 0.303922 0.0886863 0.5
47 1 0.328835 0.10208 0.5
28 1 0.360506 0.0953649 0.5
29 1 0.441465 0.0907051 0.5
30 1 0.488407 0.0833654 0.5
31 1 0.517176 0.0870842 0.5
32 1 0.566611 0.0891877 0.5
34 1 0.707095 0.0915804 0.5
39 1 0.909381 0.0829916 0.5
42 1 0.0792053 0.128094 0.5
45 1 0.214408 0.117983 0.5
46 1 0.299068 0.130915 0.5
48 1 0.371668 0.134236 0.5
49 1 0.427522 0.128353 0.5
50 1 0.476058 0.124731 0.5
51 1 0.516003 0.122513 0.5
52 1 0.552523 0.111983 0.5
53 1 0.610326 0.116953 0.5
54 1 0.661233 0.125093 0.5
55 1 0.731528 0.117145 0.5
56 1 0.765185 0.111786 0.5
57 1 0.838486 0.123875 0.5
58 1 0.879164 0.132081 0.5
60 1 0.95921 0.120726 0.5
41 1 0.0116297 0.149501 0.5
43 1 0.123915 0.133199 0.5
63 1 0.109622 0.157564 0.5
44 1 0.180854 0.136162 0.5
76 1 0.77907 0.150309 0.5
59 1 0.920765 0.148297 0.5
61 1 0.0297348 0.181058 0.5
62 1 0.0809746 0.177461 0.5
64 1 0.171951 0.177772 0.5
66 1 0.257368 0.170575 0.5
67 1 0.319019 0.164821 0.5
68 1 0.357119 0.17819 0.5
69 1 0.418611 0.156947 0.5
70 1 0.461162 0.162533 0.5
72 1 0.590729 0.181325 0.5
73 1 0.617439 0.168296 0.5
96 1 0.798771 0.178701 0.5
78 1 0.84045 0.170896 0.5
79 1 0.923344 0.174122 0.5
80 1 0.94959 0.162231 0.5
84 1 0.169346 0.204396 0.5
65 1 0.225124 0.190712 0.5
89 1 0.419774 0.204868 0.5
71 1 0.514558 0.200225 0.5
93 1 0.626272 0.201272 0.5
74 1 0.675271 0.195825 0.5
75 1 0.711201 0.198044 0.5
77 1 0.821023 0.190163 0.5
81 1 0.0356204 0.224015 0.5
82 1 0.0595181 0.237441 0.5
83 1 0.129979 0.226377 0.5
85 1 0.235754 0.231262 0.5
86 1 0.269267 0.222953 0.5
87 1 0.312765 0.224631 0.5
90 1 0.456565 0.226908 0.5
91 1 0.533463 0.22469 0.5
92 1 0.583486 0.227378 0.5
94 1 0.663965 0.225096 0.5
97 1 0.806556 0.230425 0.5
98 1 0.872396 0.232362 0.5
99 1 0.919875 0.22411 0.5
100 1 0.970612 0.233096 0.5
104 1 0.159284 0.255471 0.5
88 1 0.370643 0.258642 0.5
114 1 0.680439 0.244979 0.5
95 1 0.714134 0.24568 0.5
101 1 0.00410838 0.272 0.5
102 1 0.0875112 0.27408 0.5
103 1 0.1361 0.268482 0.5
105 1 0.213023 0.264611 0.5
106 1 0.289683 0.293407 0.5
107 1 0.330352 0.276402 0.5
108 1 0.364805 0.288712 0.5
109 1 0.417255 0.272465 0.5
110 1 0.444323 0.283772 0.5
111 1 0.508814 0.262992 0.5
112 1 0.587496 0.272115 0.5
113 1 0.614631 0.290315 0.5
115 1 0.717963 0.279386 0.5
116 1 0.779685 0.273601 0.5
118 1 0.878891 0.266191 0.5
119 1 0.947088 0.263573 0.5
120 1 0.973128 0.273865 0.5
124 1 0.160446 0.288676 0.5
132 1 0.584878 0.312826 0.5
134 1 0.700364 0.307388 0.5
135 1 0.725302 0.303771 0.5
117 1 0.833482 0.301187 0.5
138 1 0.88202 0.304297 0.5
122 1 0.0525342 0.325653 0.5
123 1 0.112411 0.334874 0.5
126 1 0.263278 0.320119 0.5
127 1 0.308772 0.340198 0.5
128 1 0.393742 0.344623 0.5
129 1 0.405835 0.321774 0.5
133 1 0.628417 0.319467 0.5
136 1 0.801274 0.318969 0.5
137 1 0.844596 0.323674 0.5
139 1 0.90689 0.319711 0.5
140 1 0.97884 0.335184 0.5
121 1 0.031897 0.339991 0.5
143 1 0.128099 0.358784 0.5
125 1 0.233232 0.349081 0.5
147 1 0.325272 0.36575 0.5
130 1 0.479808 0.354951 0.5
131 1 0.523566 0.346341 0.5
152 1 0.579321 0.364043 0.5
155 1 0.718464 0.36213 0.5
156 1 0.788552 0.357997 0.5
158 1 0.864856 0.356599 0.5
160 1 0.987197 0.36115 0.5
141 1 0.0353493 0.383923 0.5
142 1 0.0650641 0.369415 0.5
145 1 0.214292 0.383895 0.5
149 1 0.398455 0.386287 0.5
150 1 0.501843 0.382182 0.5
151 1 0.552957 0.372975 0.5
153 1 0.643264 0.384032 0.5
157 1 0.857112 0.389217 0.5
159 1 0.910054 0.38256 0.5
162 1 0.0729406 0.415488 0.5
164 1 0.177486 0.418499 0.5
144 1 0.191805 0.397538 0.5
146 1 0.311844 0.41271 0.5
148 1 0.357832 0.400096 0.5
169 1 0.439302 0.406823 0.5
172 1 0.569593 0.407403 0.5
173 1 0.62127 0.406343 0.5
154 1 0.669732 0.403703 0.5
175 1 0.702288 0.40688 0.5
177 1 0.819872 0.412243 0.5
178 1 0.875094 0.408772 0.5
161 1 0.0330866 0.427391 0.5
182 1 0.0936332 0.436954 0.5
163 1 0.121792 0.446376 0.5
165 1 0.209575 0.448593 0.5
166 1 0.291279 0.433387 0.5
167 1 0.336572 0.445931 0.5
168 1 0.37039 0.438716 0.5
170 1 0.462395 0.425513 0.5
171 1 0.53077 0.444603 0.5
174 1 0.689325 0.429901 0.5
179 1 0.94993 0.422792 0.5
180 1 1.0024 0.424512 0.5
186 1 0.255422 0.474159 0.5
187 1 0.326531 0.469551 0.5
188 1 0.373738 0.470378 0.5
190 1 0.468462 0.461095 0.5
193 1 0.635815 0.463768 0.5
194 1 0.695751 0.463967 0.5
176 1 0.775521 0.453072 0.5
198 1 0.866501 0.462865 0.5
199 1 0.923683 0.453767 0.5
181 1 0.0354411 0.479342 0.5
183 1 0.10063 0.47469 0.5
184 1 0.150393 0.498645 0.5
185 1 0.214367 0.476579 0.5
207 1 0.322035 0.49994 0.5
189 1 0.440899 0.48571 0.5
191 1 0.547501 0.476348 0.5
192 1 0.571857 0.492822 0.5
195 1 0.725045 0.47769 0.5
196 1 0.76222 0.478337 0.5
197 1 0.832376 0.476591 0.5
200 1 0.952357 0.487943 0.5
203 1 0.0886899 0.504493 0.5
205 1 0.226082 0.522339 0.5
206 1 0.284429 0.513755 0.5
208 1 0.388147 0.515063 0.5
209 1 0.436961 0.516792 0.5
212 1 0.560109 0.516623 0.5
213 1 0.63952 0.520239 0.5
218 1 0.866287 0.505026 0.5
201 1 0.0162094 0.529438 0.5
202 1 0.0641623 0.544497 0.5
204 1 0.175671 0.536737 0.5
229 1 0.428288 0.54297 0.5
210 1 0.480138 0.542671 0.5
211 1 0.516449 0.536854 0.5
214 1 0.673941 0.530662 0.5
215 1 0.730107 0.529602 0.5
216 1 0.7831 0.531853 0.5
217 1 0.832743 0.533137 0.5
219 1 0.92251 0.546622 0.5
220 1 0.9696 0.536883 0.5
221 1 0.0234278 0.573845 0.5
224 1 0.168486 0.568739 0.5
225 1 0.225755 0.565349 0.5
226 1 0.299049 0.573964 0.5
231 1 0.532944 0.567735 0.5
232 1 0.5813 0.576202 0.5
233 1 0.620462 0.5738 0.5
234 1 0.671247 0.562617 0.5
235 1 0.734739 0.55571 0.5
236 1 0.77956 0.576293 0.5
237 1 0.841461 0.5769 0.5
238 1 0.894141 0.575925 0.5
222 1 0.0700493 0.583832 0.5
223 1 0.141501 0.582805 0.5
227 1 0.324988 0.580612 0.5
228 1 0.392983 0.581407 0.5
230 1 0.486137 0.584843 0.5
255 1 0.721097 0.594325 0.5
239 1 0.943986 0.585647 0.5
240 1 0.983489 0.590636 0.5
243 1 0.126989 0.604656 0.5
244 1 0.163992 0.6158 0.5
245 1 0.244008 0.62687 0.5
246 1 0.268038 0.60786 0.5
250 1 0.475066 0.623155 0.5
251 1 0.498103 0.608979 0.5
252 1 0.551249 0.609604 0.5
254 1 0.685778 0.629933 0.5
257 1 0.80583 0.624591 0.5
259 1 0.936455 0.61598 0.5
241 1 0.0245293 0.640399 0.5
242 1 0.0971018 0.63133 0.5
247 1 0.351029 0.650839 0.5
248 1 0.379052 0.648634 0.5
249 1 0.442647 0.636886 0.5
272 1 0.57999 0.655948 0.5
253 1 0.615555 0.643561 0.5
256 1 0.756649 0.64435 0.5
277 1 0.813147 0.656795 0.5
258 1 0.867896 0.641124 0.5
260 1 0.986634 0.63786 0.5
261 1 0.00813922 0.672864 0.5
262 1 0.0707606 0.684353 0.5
264 1 0.185896 0.683554 0.5
266 1 0.263952 0.671407 0.5
267 1 0.344946 0.678072 0.5
268 1 0.384258 0.674946 0.5
269 1 0.40913 0.680716 0.5
270 1 0.486277 0.685124 0.5
271 1 0.497642 0.661871 0.5
274 1 0.682969 0.669421 0.5
276 1 0.769783 0.681445 0.5
279 1 0.916879 0.672605 0.5
280 1 0.961979 0.655402 0.5
263 1 0.114176 0.689701 0.5
265 1 0.23161 0.692752 0.5
287 1 0.312525 0.694393 0.5
288 1 0.358925 0.700215 0.5
273 1 0.637408 0.693652 0.5
294 1 0.677064 0.700667 0.5
275 1 0.705178 0.691486 0.5
297 1 0.841679 0.694558 0.5
278 1 0.869327 0.700084 0.5
281 1 0.0217475 0.718261 0.5
282 1 0.0591279 0.739144 0.5
283 1 0.107346 0.717391 0.5
285 1 0.177223 0.716608 0.5
286 1 0.283151 0.716256 0.5
289 1 0.435642 0.723768 0.5
290 1 0.467787 0.728994 0.5
292 1 0.600458 0.732135 0.5
293 1 0.639054 0.731298 0.5
295 1 0.707018 0.719295 0.5
296 1 0.77375 0.730773 0.5
298 1 0.891085 0.734056 0.5
299 1 0.919589 0.726091 0.5
300 1 0.9892 0.728585 0.5
284 1 0.161993 0.745029 0.5
310 1 0.490932 0.741152 0.5
291 1 0.519431 0.758097 0.5
301 1 0.0509889 0.765121 0.5
302 1 0.0943792 0.778107 0.5
303 1 0.124213 0.789371 0.5
304 1 0.155452 0.76972 0.5
305 1 0.230996 0.783082 0.5
306 1 0.295704 0.773502 0.5
307 1 0.328666 0.770762 0.5
308 1 0.369749 0.776891 0.5
309 1 0.4192 0.770709 0.5
311 1 0.545102 0.777792 0.5
312 1 0.575904 0.766804 0.5
313 1 0.625443 0.786604 0.5
316 1 0.803443 0.772826 0.5
317 1 0.837616 0.766563 0.5
318 1 0.869507 0.773386 0.5
319 1 0.924122 0.785469 0.5
320 1 0.985094 0.766751 0.5
324 1 0.207135 0.81066 0.5
329 1 0.441442 0.793372 0.5
331 1 0.531613 0.814576 0.5
314 1 0.667811 0.799751 0.5
315 1 0.751953 0.791317 0.5
337 1 0.810082 0.799416 0.5
321 1 0.0185779 0.843695 0.5
322 1 0.0858674 0.833533 0.5
323 1 0.119646 0.842438 0.5
325 1 0.228193 0.831538 0.5
326 1 0.256205 0.829823 0.5
327 1 0.312514 0.828112 0.5
328 1 0.390568 0.83415 0.5
330 1 0.483897 0.816403 0.5
333 1 0.631536 0.815579 0.5
335 1 0.74216 0.817769 0.5
336 1 0.774533 0.825992 0.5
338 1 0.861928 0.812942 0.5
339 1 0.906296 0.836973 0.5
340 1 0.99771 0.816244 0.5
343 1 0.0977595 0.862003 0.5
345 1 0.225555 0.861936 0.5
347 1 0.319972 0.86231 0.5