LAMMPS (27 Oct 2021)
OMP_NUM_THREADS environment is not set. Defaulting to 1 thread. (src/comm.cpp:98)
  using 1 OpenMP thread(s) per MPI task

units		si          #si units of parameters
atom_style	sphere
dimension	2
boundary p p p
newton		off
comm_modify     vel yes
lattice sq 1.0 origin 0.5 0.5 0
Lattice spacing in x,y,z = 1.0000000 1.0000000 1.0000000
region		box block 0.0 20.0 0 20.0 -0.5 0.5
create_box	1 box
Created orthogonal box = (0.0000000 0.0000000 -0.50000000) to (20.000000 20.000000 0.50000000)
  1 by 1 by 1 MPI processor grid
create_atoms 1 region box  units lattice
Created 400 atoms
  using lattice units in orthogonal box = (0.0000000 0.0000000 -0.50000000) to (20.000000 20.000000 0.50000000)
  create_atoms CPU = 0.001 seconds
group 1 type 1
400 atoms in group 1
set type 1 diameter 0.5
Setting atom values ...
  400 settings made for diameter
set type 1 mass 1
Setting atom values ...
  400 settings made for mass
neighbor  0.55 bin



pair_style granular
pair_coeff * * hooke 200000.0 50.0 tangential linear_history 200000.0 1.0 0.5 damping mass_velocity



timestep	0.0001

fix bd 1 langevin 1.0e+20  1.0e+20 50 15072
fix int 1 nve/sphere

fix		2 all enforce2d

thermo_style custom step ke
thermo 100000


dump		7 all custom 1000000 *.velocity id vx vy
dump            mydump all atom 100000 langevin_lattice.dump
restart 1000000 restart.*.langevin_lattice
run 20000000
Neighbor list info ...
  update every 1 steps, delay 10 steps, check yes
  max neighbors/atom: 2000, page size: 100000
  master list distance cutoff = 1.05
  ghost atom cutoff = 1.05
  binsize = 0.525, bins = 39 39 2
  1 neighbor lists, perpetual/occasional/extra = 1 0 0
  (1) pair granular, perpetual
      attributes: half, newton off, size, history
      pair build: half/size/bin/newtoff
      stencil: full/bin/2d
      bin: standard
Per MPI rank memory allocation (min/avg/max) = 12.24 | 12.24 | 12.24 Mbytes
Step KinEng 
       0            0 
  100000   0.18574971 
  200000   0.26455991 
  300000   0.28518875 
  400000   0.33763337 
  500000   0.36890231 
  600000   0.36478447 
  700000   0.39082462 
  800000     0.378799 
  900000   0.36766454 
 1000000   0.34694395 
 1100000   0.35134645 
 1200000   0.38047118 
 1300000   0.37336654 
 1400000   0.36995712 
 1500000     0.394266 
 1600000   0.39623717 
 1700000   0.37997154 
 1800000   0.37663181 
 1900000   0.37800942 
 2000000   0.36572595 
 2100000   0.39777693 
 2200000   0.38516361 
 2300000   0.40334479 
 2400000    0.3675906 
 2500000   0.38886918 
 2600000   0.39994009 
 2700000   0.39985782 
 2800000   0.39261554 
 2900000   0.38384583 
 3000000   0.39687629 
 3100000   0.41898621 
 3200000   0.38545894 
 3300000   0.37467527 
 3400000   0.38713172 
 3500000   0.40502989 
 3600000   0.42687692 
 3700000   0.42056979 
 3800000   0.42700949 
 3900000   0.40777519 
 4000000   0.41040461 
 4100000   0.40424278 
 4200000   0.39428626 
 4300000   0.36726525 
 4400000   0.36493249 
 4500000   0.36645596 
 4600000   0.39051318 
 4700000   0.39607558 
 4800000    0.3715041 
 4900000    0.3852199 
 5000000   0.39652899 
 5100000   0.40602856 
 5200000   0.39205905 
 5300000   0.43271973 
 5400000   0.43734455 
 5500000   0.41565498 
 5600000    0.4163854 
 5700000   0.39985079 
 5800000   0.40661802 
 5900000   0.40204864 
 6000000   0.38349749 
 6100000   0.38208446 
 6200000   0.37910123 
 6300000   0.41866529 
 6400000   0.40645618 
 6500000   0.39495663 
 6600000   0.40020794 
 6700000   0.37322609 
 6800000   0.38818944 
 6900000   0.39294716 
 7000000   0.39057713 
 7100000   0.38848608 
 7200000   0.40113634 
 7300000   0.39193907 
 7400000   0.41077096 
 7500000   0.44044278 
 7600000   0.40267612 
 7700000   0.37318045 
 7800000   0.38263055 
 7900000   0.39991594 
 8000000    0.3945303 
 8100000   0.40757216 
 8200000   0.40532827 
 8300000   0.40362115 
 8400000   0.41958575 
 8500000   0.40356172 
 8600000   0.37710999 
 8700000   0.37786825 
 8800000   0.39284658 
 8900000   0.39634601 
 9000000   0.39292452 
 9100000   0.39136513 
 9200000   0.38337223 
 9300000   0.40867187 
 9400000   0.39732152 
 9500000   0.39133068 
 9600000   0.39375142 
 9700000    0.4031584 
 9800000   0.37318618 
 9900000   0.38571684 
10000000   0.38632299 
10100000   0.39104299 
10200000   0.40680335 
10300000    0.4041536 
10400000   0.39212698 
10500000   0.38782725 
10600000   0.39108055 
10700000     0.375781 
10800000   0.37683007 
10900000    0.3651752 
11000000    0.3885314 
11100000   0.40327365 
11200000   0.38733888 
11300000   0.37115791 
11400000   0.39197237 
11500000   0.39622923 
11600000   0.40043816 
11700000   0.40244354 
11800000     0.401991 
11900000    0.3990752 
12000000   0.37903658 
12100000   0.36388228 
12200000   0.37804035 
12300000   0.36463799 
12400000   0.36390837 
12500000   0.38037059 
12600000   0.38403638 
12700000   0.39757251 
12800000   0.40180202 
12900000   0.41265547 
13000000   0.38625019 
13100000   0.38278273 
13200000    0.3903989 
13300000   0.39561072 
13400000   0.39025738 
13500000   0.39460935 
13600000   0.40336292 
13700000   0.38876278 
13800000     0.388369 
13900000   0.38002558 
14000000   0.39233327 
14100000   0.37956539 
14200000   0.39912102 
14300000   0.42658823 
14400000   0.40457855 
14500000   0.39629963 
14600000     0.404091 
14700000   0.37613994 
14800000   0.39315256 
14900000   0.35764538 
15000000   0.37359501 
15100000   0.37166562 
15200000   0.35544471 
15300000   0.35964021 
15400000   0.35456231 
15500000   0.39933629 
15600000   0.40726605 
15700000   0.39850574 
15800000   0.40998486 
15900000   0.39365905 
16000000   0.38454665 
16100000   0.39482936 
16200000   0.42100118 
16300000   0.41205723 
16400000    0.3711756 
16500000   0.39732472 
16600000   0.37669784 
16700000   0.36270101 
16800000   0.39361876 
16900000   0.40090141 
17000000   0.40165991 
17100000   0.38257789 
17200000   0.42402644 
17300000   0.42088835 
17400000   0.40120809 
17500000   0.39220554 
17600000   0.39585721 
17700000   0.39315816 
17800000   0.40637654 
17900000   0.39840147 
18000000   0.37402732 
18100000   0.37846176 
18200000   0.36117944 
18300000   0.39419286 
18400000   0.39561188 
18500000    0.3800807 
18600000   0.40500813 
18700000   0.40691382 
18800000   0.39767866 
18900000   0.36947322 
19000000   0.35217098 
19100000    0.3719781 
19200000    0.3711231 
19300000   0.39171535 
19400000   0.41348183 
19500000   0.41735249 
19600000   0.42197472 
19700000   0.39421632 
19800000   0.40699935 
19900000   0.39358947 
20000000   0.38416697 
Loop time of 612.168 on 1 procs for 20000000 steps with 400 atoms

99.9% CPU use with 1 MPI tasks x 1 OpenMP threads

MPI task timing breakdown:
Section |  min time  |  avg time  |  max time  |%varavg| %total
---------------------------------------------------------------
Pair    | 151.1      | 151.1      | 151.1      |   0.0 | 24.68
Neigh   | 0.057845   | 0.057845   | 0.057845   |   0.0 |  0.01
Comm    | 22.269     | 22.269     | 22.269     |   0.0 |  3.64
Output  | 0.30259    | 0.30259    | 0.30259    |   0.0 |  0.05
Modify  | 414.46     | 414.46     | 414.46     |   0.0 | 67.70
Other   |            | 23.97      |            |       |  3.92

Nlocal:        400.000 ave         400 max         400 min
Histogram: 1 0 0 0 0 0 0 0 0 0
Nghost:        75.0000 ave          75 max          75 min
Histogram: 1 0 0 0 0 0 0 0 0 0
Neighs:        595.000 ave         595 max         595 min
Histogram: 1 0 0 0 0 0 0 0 0 0

Total # of neighbors = 595
Ave neighs/atom = 1.4875000
Neighbor list builds = 798
Dangerous builds = 0
Total wall time: 0:10:12
